Process 0 of 1 is on qciep03 - thread support 0
initial socket setup ...start
initial socket setup ...done 
now start server 0 ... 
qciep03.tugraz.at 127.0.1
Q-Chem Developer Version! Running on 127.0.1.*
                  Welcome to Q-Chem
     A Quantum Leap Into The Future Of Chemistry


 Q-Chem 5.0, Q-Chem, Inc., Pleasanton, CA (2017)

 Yihan Shao,  Zhengting Gan,  E. Epifanovsky,  A. T. B. Gilbert,  M. Wormit,  
 J. Kussmann,  A. W. Lange,  A. Behn,  Jia Deng,  Xintian Feng,  D. Ghosh,  
 M. Goldey,  P. R. Horn,  L. D. Jacobson,  I. Kaliman,  T. Kus,  A. Landau,  
 Jie Liu,  E. I. Proynov,  R. M. Richard,  R. P. Steele,  E. J. Sundstrom,  
 H. L. Woodcock III,  P. M. Zimmerman,  D. Zuev,  B. Albrecht,  E. Alguire,  
 S. A. Baeppler,  D. Barton,  Z. Benda,  Y. A. Bernard,  E. J. Berquist,  
 K. B. Bravaya,  H. Burton,  D. Casanova,  Chun-Min Chang,  Yunqing Chen,  
 A. Chien,  K. D. Closser,  M. P. Coons,  S. Dasgupta,  A. L. Dempwolff,  
 M. Diedenhofen,  Hainam Do,  R. G. Edgar,  Po-Tung Fang,  S. Fatehi,  
 Qingguo Feng,  J. Fosso-Tande,  Qinghui Ge,  A. Ghysels,  G. Gidofalvi,  
 J. Gomes,  J. Gonthier,  A. Gunina,  M. W. D. Hanson-Heine,  
 P. H. P. Harbach,  A. W. Hauser,  J. E. Herr,  E. G. Hohenstein,  
 Z. C. Holden,  Kerwin Hui,  T.-C. Jagau,  Hyunjun Ji,  B. Kaduk,  
 K. Khistyaev,  Jaehoon Kim,  P. Klunzinger,  K. Koh,  D. Kosenkov,  
 L. Koulias,  T. Kowalczyk,  C. M. Krauter,  A. Kunitsa,  Ka Un Lao,  
 A. Laurent,  K. V. Lawler,  Joonho Lee,  D. Lefrancois,  S. Lehtola,  
 D. S. Levine,  Yi-Pei Li,  You-Sheng Lin,  Fenglai Liu,  E. Livshits,  
 A. Luenser,  P. Manohar,  E. Mansoor,  S. F. Manzer,  Shan-Ping Mao,  
 Yuezhi Mao,  N. Mardirossian,  A. V. Marenich,  T. Markovich,  
 L. A. Martinez-Martinez,  S. A. Maurer,  N. J. Mayhall,  S. C. McKenzie,  
 J.-M. Mewes,  A. F. Morrison,  J. W. Mullinax,  K. Nanda,  
 T. S. Nguyen-Beck,  R. Olivares-Amaya,  J. A. Parkhill,  T. M. Perrine,  
 F. Plasser,  S. Prager,  A. Prociuk,  E. Ramos,  D. R. Rehn,  F. Rob,  
 M. Schneider,  N. Sergueev,  S. M. Sharada,  S. Sharma,  D. W. Small,  
 T. Stauch,  T. Stein,  Yu-Chuan Su,  A. J. W. Thom,  A. Tkatchenko,  
 T. Tsuchimochi,  L. Vogt,  O. Vydrov,  M. A. Watson,  J. Wenzel,  
 M. de Wergifosse,  T. A. Wesolowski,  A. White,  J. Witte,  A. Yamada,  
 Jun Yang,  K. Yao,  S. Yeganeh,  S. R. Yost,  Zhi-Qiang You,  A. Zech,  
 Igor Ying Zhang,  Xing Zhang,  Yan Zhao,  Ying Zhu,  B. R. Brooks,  
 G. K. L. Chan,  C. J. Cramer,  M. S. Gordon,  W. J. Hehre,  A. Klamt,  
 M. W. Schmidt,  C. D. Sherrill,  D. G. Truhlar,  A. Aspuru-Guzik,  R. Baer,  
 A. T. Bell,  N. A. Besley,  Jeng-Da Chai,  R. A. DiStasio Jr.,  A. Dreuw,  
 B. D. Dunietz,  T. R. Furlani,  Chao-Ping Hsu,  Yousung Jung,  Jing Kong,  
 D. S. Lambrecht,  WanZhen Liang,  C. Ochsenfeld,  V. A. Rassolov,  
 L. V. Slipchenko,  J. E. Subotnik,  T. Van Voorhis,  J. M. Herbert,  
 A. I. Krylov,  P. M. W. Gill,  M. Head-Gordon

 Contributors to earlier versions of Q-Chem not listed above: 
 R. D. Adamson,  B. Austin,  J. Baker,  G. J. O. Beran,  K. Brandhorst,  
 S. T. Brown,  E. F. C. Byrd,  A. K. Chakraborty,  C.-L. Cheng,  
 Siu Hung Chien,  D. M. Chipman,  D. L. Crittenden,  H. Dachsel,  
 R. J. Doerksen,  A. D. Dutoi,  L. Fusti-Molnar,  W. A. Goddard III,  
 A. Golubeva-Zadorozhnaya,  S. R. Gwaltney,  G. Hawkins,  A. Heyden,  
 S. Hirata,  G. Kedziora,  F. J. Keil,  C. Kelley,  Jihan Kim,  R. A. King,  
 R. Z. Khaliullin,  P. P. Korambath,  W. Kurlancheek,  A. M. Lee,  M. S. Lee,  
 S. V. Levchenko,  Ching Yeh Lin,  D. Liotard,  R. C. Lochan,  I. Lotan,  
 P. E. Maslen,  N. Nair,  D. P. O'Neill,  D. Neuhauser,  E. Neuscamman,  
 C. M. Oana,  R. Olson,  B. Peters,  R. Peverati,  P. A. Pieniazek,  
 Y. M. Rhee,  J. Ritchie,  M. A. Rohrdanz,  E. Rosta,  N. J. Russ,  
 H. F. Schaefer III,  N. E. Schultz,  N. Shenvi,  A. C. Simmonett,  A. Sodt,  
 D. Stuck,  K. S. Thanthiriwatte,  V. Vanovschi,  Tao Wang,  A. Warshel,  
 C. F. Williams,  Q. Wu,  X. Xu,  W. Zhang

 Please cite Q-Chem as follows:
 Y. Shao et al., Mol. Phys. 113, 184-215 (2015)
 DOI: 10.1080/00268976.2014.952696

 Q-Chem 5.0.2 for Intel X86 EM64T Linux

 Parts of Q-Chem use Armadillo 5.200.1 (Boston Tea Smuggler).
 http://arma.sourceforge.net/

 Q-Chem begins on Thu Jan 25 17:51:40 2018  


Host: 0

     Scratch files written to /home/jcartus/scratch/Indole-benzene-T-shape-complex.dir//
 Using version located at /usr/local/qchem/bin/qchem

 Parallel job on  1  processors

Total Memory Limit in MB = 2000
Mega-Array Size in MB = 192

Checking the input file for inconsistencies... 	...done.
Finally everything over in PARseQInput

--------------------------------------------------------------
User input:
--------------------------------------------------------------
$rem
SCF_PRINT                     1
BASIS                         6-311++g**
SCF_SAVE_MATRICES             1
SCF_CONVERGENCE               5
SCF_FINAL_PRINT               1
METHOD                        hf
JOBTYPE                       sp
$end

$molecule
0 1
C    2.5118997    1.6250148    0.0
C    2.7130094    0.9578537    -1.2082918
C    3.1177821    -0.3767436    -1.2083647
C    3.3213848    -1.0437307    0.0
C    3.1177821    -0.3767436    1.2083647
C    2.7130094    0.9578537    1.2082918
H    2.2024038    2.6611358    0.0
H    2.551176    1.4736908    -2.14459
H    3.2702999    -0.8951406    -2.1448379
H    3.6368139    -2.0781521    0.0
H    3.2702999    -0.8951406    2.1448379
H    2.551176    1.4736908    2.14459
H    0.8065245    -0.4358866    0.0
N    -0.1442408    -0.7686927    0.0
C    -0.5161122    -2.089322    0.0
C    -1.8898755    -2.1814495    0.0
C    -2.3932317    -0.847083    0.0
C    -1.2640653    0.0195887    0.0
C    -1.3896004    1.4117668    0.0
C    -2.6726501    1.936645    0.0
C    -3.8054511    1.097479    0.0
C    -3.6798167    -0.2817209    0.0
H    0.2310024    -2.8653173    0.0
H    -2.4585759    -3.0956052    0.0
H    -0.5188733    2.053952    0.0
H    -2.807757    3.0097859    0.0
H    -4.7905991    1.5439372    0.0
H    -4.5580187    -0.9142916    0.0
$end


--------------------------------------------------------------
 I, IOp=           1           2  D=   6.5443606072420642E-016 Fix sym
 I,J,IOp=           2           6           2  D=   1.3322676295501878E-015 Fix sym
 I,J,IOp=           3           5           2  D=   9.9301366129890925E-016 Fix sym
 I, IOp=           4           2  D=   8.8817841970012523E-016 Fix sym
 I, IOp=           7           2  D=   1.3322676295501878E-015 Fix sym
 I,J,IOp=           8          12           2  D=   1.2560739669470201E-015 Fix sym
 I,J,IOp=           9          11           2  D=   2.8086667748613610E-015 Fix sym
 I, IOp=          10           2  D=   2.6645352591003757E-015 Fix sym
 I, IOp=          13           2  D=   4.4408920985006262E-016 Fix sym
 I, IOp=          14           2  D=   4.4408920985006262E-016 Fix sym
 I, IOp=          15           2  D=   1.3322676295501878E-015 Fix sym
 I, IOp=          16           2  D=   1.1102230246251565E-015 Fix sym
 I, IOp=          17           2  D=   2.2204460492503131E-016 Fix sym
 I, IOp=          18           2  D=   2.2204460492503131E-016 Fix sym
 I, IOp=          19           2  D=   8.8817841970012523E-016 Fix sym
 I, IOp=          20           2  D=   1.7763568394002505E-015 Fix sym
 I, IOp=          21           2  D=   8.8817841970012523E-016 Fix sym
 I, IOp=          22           2  D=   4.4408920985006262E-016 Fix sym
 I, IOp=          23           2  D=   2.6645352591003757E-015 Fix sym
 I, IOp=          24           2  D=   1.7763568394002505E-015 Fix sym
 I, IOp=          25           2  D=   8.8817841970012523E-016 Fix sym
 I, IOp=          26           2  D=   2.6645352591003757E-015 Fix sym
 I, IOp=          27           2  D=   1.7763568394002505E-015 Fix sym
 I, IOp=          28           2  D=   4.4408920985006262E-016 Fix sym
 ----------------------------------------------------------------
             Standard Nuclear Orientation (Angstroms)
    I     Atom           X                Y                Z
 ----------------------------------------------------------------
    1      C      -2.4860661704    -1.6348956891    -0.0000000000
    2      C      -2.6911380319    -0.9689418045    -1.2082918000
    3      C      -3.1038366450     0.3632258826    -1.2083647000
    4      C      -3.3114004281     1.0289909515     0.0000000000
    5      C      -3.1038366450     0.3632258826     1.2083647000
    6      C      -2.6911380319    -0.9689418045     1.2082918000
    7      H      -2.1704168660    -2.6691586902    -0.0000000000
    8      H      -2.5262412711    -1.4838078273    -2.1445900000
    9      H      -3.2594331868     0.8807071336    -2.1448379000
   10      H      -3.6329727250     2.0615191147     0.0000000000
   11      H      -3.2594331868     0.8807071336     2.1448379000
   12      H      -2.5262412711    -1.4838078273     2.1445900000
   13      H      -0.7929714329     0.4361063299     0.0000000000
   14      N       0.1557988165     0.7745580544     0.0000000000
   15      C       0.5198136108     2.0973744875     0.0000000000
   16      C       1.8930050200     2.1976662330     0.0000000000
   17      C       2.4042840195     0.8663153383     0.0000000000
   18      C       1.2802892061    -0.0070529998    -0.0000000000
   19      C       1.4140974220    -1.3984603035    -0.0000000000
   20      C       2.7002444164    -1.9157025739    -0.0000000000
   21      C       3.8280372640    -1.0698178453    -0.0000000000
   22      C       3.6942068944     0.3086108974    -0.0000000000
   23      H      -0.2319004328     2.8689151072     0.0000000000
   24      H       2.4562614824     3.1151862309     0.0000000000
   25      H       0.5472029585    -2.0458099021    -0.0000000000
   26      H       2.8417278541    -2.9880214176    -0.0000000000
   27      H       4.8158216801    -1.5104122774    -0.0000000000
   28      H       4.5686332760     0.9463905979    -0.0000000000
 ----------------------------------------------------------------
 Molecular Point Group                 Cs    NOp =  2
 Largest Abelian Subgroup              Cs    NOp =  2
 Nuclear Repulsion Energy =   876.9192337867 hartrees
 There are       52 alpha and       52 beta electrons
 Requested basis set is 6-311++G(d,p)
 There are 155 shells and 421 basis functions

 Total QAlloc Memory Limit   2000 MB
 Mega-Array Size       188 MB
 MEM_STATIC part       192 MB

finished with qalloc call
 Job number = 2, Threshold = 1.00E-08
Integral type ranges set in mkLRange.C for JobNum: 2  <1-21|1-21>
Symmetry turned off temporarily
 Using the largest function pair in Schwarz integrals
Total number of integrals generated =         1040800
Symmetry turned back on
 A cutoff of  1.0D-08 yielded   8835 shell pairs
 There are     65961 function pairs (     70234 Cartesian)
 Job number = 11, Threshold = 1.00E-08
Integral type ranges set in mkLRange.C for JobNum: 11  <1-21|22-22>
Total number of integrals generated =         1542688
 Smallest overlap matrix eigenvalue = 2.78E-07

 Q-Chem warning in module /usr/local/qchem/stvman/mkSTV.C, line 295:

 Overlap eigenvalue is smaller than square root of threshold

 Linear dependence detected in AO basis
 Number of orthogonalized atomic orbitals = 418
 Maximum deviation from orthogonality = 1.758E-10
 Multipole matrices computed through 2nd order

 Scale SEOQF with 1.000000e-01/1.000000e-01/1.000000e-01

 Standard Electronic Orientation quadrupole field applied
 Nucleus-field energy     =     0.0000000334 hartrees
 ENuRep (before)= 876.9192337867
 ENucField = 0.0000000334
 ENuRep (after) = 876.9192338201
 Guess from superposition of atomic densities
 Warning:  Energy on first SCF cycle will be non-variational
 SAD guess density has 104.000000 electrons

 ==================================================
    GEN_SCFMAN: A general SCF calculation manager  
                                                   
    Authors:                                       
        -- Eric Jon Sundstrom 2008-2014            
        -- Paul Horn 2010-2015                     
        -- Yuezhi Mao 2012-                        
        -- Dmitri Zuev 2014                        
        -- Alec White 2015-                        
        -- David Stuck 2015                        
        -- Shaama M.S. 2015                        
        -- Shane Yost 2015-                         
        -- Joonho Lee 2016-                        
        -- David Small 2016-                       
        -- Daniel Levine 2016-                     
        -- Susi Lehtola 2017-                      
        -- Hugh Burton 2017-                       
 ==================================================
 Hartree-Fock
Finding J and K together
 Job number = 22, Threshold = 1.00E-08
Integral type ranges set in mkLRange.C for JobNum: 22  <1-21|1-21>
 MakeJK  time:  CPU      30.47 s  wall      30.74 s
 HF Exchange:              -86.46597073793640
 One-Electron:             -2531.43356545428924
 Total Coulomb:            1141.86725692069399
 Nuclear repulsion:        876.91923382006519
 A restricted SCF calculation will be
 performed using DIIS
 SCF converges when DIIS error is below 1.0e-05
 ---------------------------------------
  Cycle       Energy         DIIS error
 ---------------------------------------
Finding J and K together
 Job number = 22, Threshold = 1.00E-08
Integral type ranges set in mkLRange.C for JobNum: 22  <1-21|1-21>
 MakeJK  time:  CPU     172.18 s  wall     173.24 s
 HF Exchange:              -83.67565003771520
 One-Electron:             -2541.48256366141595
 Total Coulomb:            1156.10308710371555
 Nuclear repulsion:        876.91923382006519
    1    -599.1130454515      3.48e-02  
Finding J and K together
 Job number = 22, Threshold = 1.00E-08
Integral type ranges set in mkLRange.C for JobNum: 22  <1-21|1-21>
 MakeJK  time:  CPU     157.72 s  wall     158.02 s
 HF Exchange:              -83.84753846655052
 One-Electron:             -2541.16711523605363
 Total Coulomb:            1155.80677908823645
 Nuclear repulsion:        876.91923382006519
    2    -592.1358927754      2.27e-03  
Finding J and K together
 Job number = 22, Threshold = 1.00E-08
Integral type ranges set in mkLRange.C for JobNum: 22  <1-21|1-21>
 MakeJK  time:  CPU     114.47 s  wall     114.56 s
 HF Exchange:              -83.91384970020694
 One-Electron:             -2541.38668513569155
 Total Coulomb:            1156.07942279713734
 Nuclear repulsion:        876.91923382006519
    3    -592.2886407943      8.04e-04  
Finding J and K together
 Job number = 22, Threshold = 1.00E-08
Integral type ranges set in mkLRange.C for JobNum: 22  <1-21|1-21>
 MakeJK  time:  CPU     106.78 s  wall     106.85 s
 HF Exchange:              -83.92825404071803
 One-Electron:             -2541.54699145499762
 Total Coulomb:            1156.24866112524273
 Nuclear repulsion:        876.91923382006519
    4    -592.3018782187      4.80e-04  
Finding J and K together
 Job number = 22, Threshold = 1.00E-08
Integral type ranges set in mkLRange.C for JobNum: 22  <1-21|1-21>
 MakeJK  time:  CPU     106.20 s  wall     106.28 s
 HF Exchange:              -83.92071326585841
 One-Electron:             -2541.38486222999381
 Total Coulomb:            1156.07888209452108
 Nuclear repulsion:        876.91923382006519
    5    -592.3073505504      6.21e-05  
Finding J and K together
 Job number = 22, Threshold = 1.00E-08
Integral type ranges set in mkLRange.C for JobNum: 22  <1-21|1-21>
 MakeJK  time:  CPU     106.11 s  wall     106.18 s
 HF Exchange:              -83.92318533761821
 One-Electron:             -2541.42530248584990
 Total Coulomb:            1156.12177515005942
 Nuclear repulsion:        876.91923382006519
    6    -592.3074595813      1.89e-05  
    7    -592.3074788533      7.86e-06  Convergence criterion met
 ---------------------------------------
 SCF time:   CPU 802.03s  wall 804.00s 
 Total energy in the final basis set =     -592.3074788533
 HF Exchange:              -83.92318533761821
 One-Electron:             -2541.42530248584990
 Total Coulomb:            1156.12177515005942
 Nuclear repulsion:        876.91923382006519
Wall  1 = 804
Clock 1 = 802.65954589843750
 ==================================================
                  Done GEN_SCFMAN                  
 ==================================================

Symmetry turned off temporarily

 --------------------------------------------------------------
             Orbital Energies (a.u.) and Symmetries
 --------------------------------------------------------------

 Alpha MOs, Restricted
 -- Occupied --                  
-15.590 -11.264 -11.257 -11.256 -11.256 -11.255 -11.254 -11.254
  1 A'    2 A'    3 A'    4 A'    5 A'    1 A"    6 A'    2 A"                 
-11.254 -11.225 -11.225 -11.223 -11.220 -11.216 -11.210  -1.291
  7 A'    8 A'    9 A'   10 A'   11 A'   12 A'   13 A'   14 A'                 
 -1.172  -1.124  -1.050  -1.035  -1.035  -0.991  -0.968  -0.843
 15 A'   16 A'   17 A'   18 A'    3 A"   19 A'   20 A'   21 A'                 
 -0.843  -0.837  -0.800  -0.783  -0.730  -0.722  -0.662  -0.657
  4 A"   22 A'   23 A'   24 A'   25 A'   26 A'   27 A'   28 A'                 
 -0.643  -0.638  -0.608  -0.607  -0.597  -0.591  -0.574  -0.568
 29 A'    5 A"   30 A'    6 A"   31 A'   32 A'    7 A"   33 A'                 
 -0.545  -0.519  -0.513  -0.513  -0.503  -0.475  -0.457  -0.379
 34 A'   35 A'   36 A'    8 A"   37 A'   38 A'    9 A"   10 A"                 
 -0.358  -0.356  -0.292  -0.274
 39 A'   11 A"   12 A"   13 A"                                                 
 -- Virtual --                   
  0.035   0.041   0.045   0.049   0.057   0.059   0.062   0.068
 40 A'   41 A'   14 A"   42 A'   43 A'   44 A'   15 A"   45 A'                 
  0.078   0.086   0.091   0.092   0.094   0.104   0.107   0.113
 46 A'   47 A'   48 A'   49 A'   16 A"   17 A"   50 A'   51 A'                 
  0.128   0.138   0.138   0.143   0.153   0.156   0.162   0.163
 18 A"   52 A'   19 A"   20 A"   21 A"   53 A'   22 A"   54 A'                 
  0.166   0.169   0.171   0.172   0.174   0.177   0.182   0.182
 55 A'   23 A"   56 A'   24 A"   57 A'   58 A'   25 A"   59 A'                 
  0.184   0.192   0.195   0.199   0.204   0.204   0.207   0.211
 60 A'   61 A'   62 A'   26 A"   63 A'   27 A"   64 A'   28 A"                 
  0.216   0.223   0.229   0.229   0.233   0.235   0.236   0.237
 65 A'   66 A'   29 A"   67 A'   68 A'   30 A"   69 A'   70 A'                 
  0.241   0.243   0.247   0.248   0.259   0.266   0.266   0.273
 71 A'   31 A"   32 A"   72 A'   73 A'   33 A"   74 A'   75 A'                 
  0.282   0.289   0.298   0.302   0.309   0.313   0.318   0.322
 76 A'   34 A"   35 A"   77 A'   36 A"   78 A'   79 A'   80 A'                 
  0.326   0.334   0.341   0.343   0.351   0.361   0.365   0.370
 81 A'   82 A'   37 A"   83 A'   84 A'   85 A'   86 A'   87 A'                 
  0.374   0.376   0.379   0.396   0.399   0.399   0.404   0.408
 88 A'   38 A"   89 A'   90 A'   91 A'   39 A"   40 A"   92 A'                 
  0.410   0.425   0.427   0.434   0.439   0.445   0.452   0.460
 93 A'   94 A'   41 A"   95 A'   96 A'   97 A'   98 A'   99 A'                 
  0.463   0.466   0.474   0.488   0.488   0.498   0.511   0.521
100 A'  101 A'  102 A'   42 A"  103 A'   43 A"  104 A'  105 A'                 
  0.527   0.529   0.570   0.594   0.602   0.631   0.644   0.657
106 A'  107 A'  108 A'   44 A"  109 A'  110 A'  111 A'  112 A'                 
  0.669   0.716   0.725   0.730   0.733   0.737   0.738   0.754
113 A'  114 A'  115 A'   45 A"  116 A'   46 A"   47 A"  117 A'                 
  0.754   0.758   0.761   0.777   0.778   0.785   0.789   0.798
 48 A"  118 A'   49 A"  119 A'  120 A'   50 A"  121 A'  122 A'                 
  0.800   0.804   0.811   0.833   0.837   0.849   0.856   0.858
 51 A"   52 A"  123 A'   53 A"  124 A'   54 A"  125 A'   55 A"                 
  0.867   0.878   0.887   0.899   0.913   0.925   0.928   0.932
126 A'   56 A"  127 A'  128 A'  129 A'  130 A'   57 A"   58 A"                 
  0.937   0.940   0.945   0.954   0.966   0.974   0.977   0.982
131 A'   59 A"  132 A'  133 A'  134 A'  135 A'  136 A'   60 A"                 
  0.991   0.996   1.008   1.036   1.048   1.056   1.060   1.070
137 A'  138 A'  139 A'  140 A'  141 A'  142 A'   61 A"  143 A'                 
  1.075   1.077   1.088   1.093   1.094   1.113   1.114   1.126
144 A'  145 A'  146 A'  147 A'  148 A'   62 A"   63 A"  149 A'                 
  1.134   1.143   1.154   1.162   1.170   1.186   1.196   1.212
150 A'   64 A"  151 A'  152 A'  153 A'  154 A'   65 A"   66 A"                 
  1.214   1.223   1.231   1.234   1.254   1.256   1.262   1.272
155 A'  156 A'   67 A"  157 A'   68 A"  158 A'  159 A'  160 A'                 
  1.287   1.317   1.327   1.333   1.347   1.371   1.375   1.377
161 A'   69 A"   70 A"   71 A"  162 A'   72 A"   73 A"  163 A'                 
  1.399   1.413   1.426   1.429   1.463   1.465   1.512   1.542
164 A'   74 A"   75 A"  165 A'  166 A'   76 A"  167 A'  168 A'                 
  1.568   1.695   1.700   1.741   1.768   1.775   1.783   1.785
169 A'   77 A"  170 A'  171 A'  172 A'   78 A"  173 A'   79 A"                 
  1.790   1.797   1.816   1.827   1.832   1.840   1.849   1.851
174 A'  175 A'  176 A'   80 A"   81 A"  177 A'   82 A"  178 A'                 
  1.873   1.880   1.881   1.901   1.920   1.930   1.939   1.941
179 A'   83 A"  180 A'   84 A"  181 A'  182 A'  183 A'   85 A"                 
  1.959   1.982   2.009   2.019   2.027   2.036   2.045   2.054
184 A'  185 A'  186 A'   86 A"  187 A'   87 A"   88 A"  188 A'                 
  2.058   2.059   2.094   2.099   2.116   2.117   2.145   2.155
 89 A"  189 A'  190 A'   90 A"  191 A'   91 A"  192 A'   92 A"                 
  2.180   2.201   2.218   2.221   2.222   2.223   2.238   2.244
193 A'   93 A"  194 A'   94 A"  195 A'   95 A"   96 A"  196 A'                 
  2.259   2.259   2.271   2.272   2.290   2.299   2.317   2.330
197 A'   97 A"  198 A'   98 A"  199 A'  200 A'  201 A'   99 A"                 
  2.347   2.356   2.364   2.365   2.380   2.409   2.422   2.457
202 A'  203 A'  100 A"  204 A'  205 A'  101 A"  206 A'  102 A"                 
  2.471   2.571   2.591   2.626   2.644   2.658   2.695   2.711
207 A'  103 A"  208 A'  209 A'  104 A"  210 A'  211 A'  105 A"                 
  2.727   2.734   2.790   2.813   2.838   2.845   2.847   2.854
106 A"  212 A'  213 A'  107 A"  108 A"  214 A'  215 A'  216 A'                 
  2.881   2.909   2.916   2.917   2.948   2.954   2.968   2.978
217 A'  218 A'  109 A"  219 A'  220 A'  110 A"  221 A'  222 A'                 
  3.009   3.022   3.033   3.041   3.048   3.053   3.054   3.066
223 A'  224 A'  225 A'  111 A"  226 A'  227 A'  112 A"  228 A'                 
  3.076   3.088   3.091   3.098   3.116   3.136   3.147   3.169
229 A'  230 A'  113 A"  231 A'  232 A'  233 A'  234 A'  235 A'                 
  3.170   3.186   3.207   3.246   3.250   3.253   3.253   3.266
114 A"  236 A'  115 A"  116 A"  117 A"  237 A'  118 A"  238 A'                 
  3.288   3.294   3.314   3.315   3.325   3.326   3.345   3.355
119 A"  239 A'  240 A'  120 A"  121 A"  241 A'  242 A'  122 A"                 
  3.430   3.436   3.481   3.508   3.531   3.576   3.655   3.720
243 A'  123 A"  244 A'  124 A"  125 A"  245 A'  246 A'  247 A'                 
  3.765   3.782   3.809   3.860   3.870   3.910   3.914   3.935
126 A"  248 A'  249 A'  250 A'  251 A'  127 A"  252 A'  253 A'                 
  3.961   3.974   4.004   4.064   4.075   4.107   4.153   4.397
254 A'  255 A'  256 A'  257 A'  258 A'  259 A'  260 A'  128 A"                 
  4.400   4.403   4.409   4.472   4.483   4.509   4.560   4.563
261 A'  262 A'  129 A"  263 A'  264 A'  265 A'  266 A'  130 A"                 
  4.572   4.649   4.861   5.258   5.287   5.486   5.676  24.786
267 A'  268 A'  269 A'  131 A"  270 A'  271 A'  272 A'  273 A'                 
 24.804  25.040  25.124  25.125  25.146  25.177  25.229  25.241
274 A'  275 A'  276 A'  132 A"  277 A'  278 A'  279 A'  280 A'                 
 25.241  25.290  25.345  25.350  25.377  37.111
133 A"  281 A'  282 A'  283 A'  284 A'  285 A'                                 

 Beta MOs, Restricted
 -- Occupied --                  
-15.590 -11.264 -11.257 -11.256 -11.256 -11.255 -11.254 -11.254
  1 A'    2 A'    3 A'    4 A'    5 A'    1 A"    6 A'    2 A"                 
-11.254 -11.225 -11.225 -11.223 -11.220 -11.216 -11.210  -1.291
  7 A'    8 A'    9 A'   10 A'   11 A'   12 A'   13 A'   14 A'                 
 -1.172  -1.124  -1.050  -1.035  -1.035  -0.991  -0.968  -0.843
 15 A'   16 A'   17 A'   18 A'    3 A"   19 A'   20 A'   21 A'                 
 -0.843  -0.837  -0.800  -0.783  -0.730  -0.722  -0.662  -0.657
  4 A"   22 A'   23 A'   24 A'   25 A'   26 A'   27 A'   28 A'                 
 -0.643  -0.638  -0.608  -0.607  -0.597  -0.591  -0.574  -0.568
 29 A'    5 A"   30 A'    6 A"   31 A'   32 A'    7 A"   33 A'                 
 -0.545  -0.519  -0.513  -0.513  -0.503  -0.475  -0.457  -0.379
 34 A'   35 A'   36 A'    8 A"   37 A'   38 A'    9 A"   10 A"                 
 -0.358  -0.356  -0.292  -0.274
 39 A'   11 A"   12 A"   13 A"                                                 
 -- Virtual --                   
  0.035   0.041   0.045   0.049   0.057   0.059   0.062   0.068
 40 A'   41 A'   14 A"   42 A'   43 A'   44 A'   15 A"   45 A'                 
  0.078   0.086   0.091   0.092   0.094   0.104   0.107   0.113
 46 A'   47 A'   48 A'   49 A'   16 A"   17 A"   50 A'   51 A'                 
  0.128   0.138   0.138   0.143   0.153   0.156   0.162   0.163
 18 A"   52 A'   19 A"   20 A"   21 A"   53 A'   22 A"   54 A'                 
  0.166   0.169   0.171   0.172   0.174   0.177   0.182   0.182
 55 A'   23 A"   56 A'   24 A"   57 A'   58 A'   25 A"   59 A'                 
  0.184   0.192   0.195   0.199   0.204   0.204   0.207   0.211
 60 A'   61 A'   62 A'   26 A"   63 A'   27 A"   64 A'   28 A"                 
  0.216   0.223   0.229   0.229   0.233   0.235   0.236   0.237
 65 A'   66 A'   29 A"   67 A'   68 A'   30 A"   69 A'   70 A'                 
  0.241   0.243   0.247   0.248   0.259   0.266   0.266   0.273
 71 A'   31 A"   32 A"   72 A'   73 A'   33 A"   74 A'   75 A'                 
  0.282   0.289   0.298   0.302   0.309   0.313   0.318   0.322
 76 A'   34 A"   35 A"   77 A'   36 A"   78 A'   79 A'   80 A'                 
  0.326   0.334   0.341   0.343   0.351   0.361   0.365   0.370
 81 A'   82 A'   37 A"   83 A'   84 A'   85 A'   86 A'   87 A'                 
  0.374   0.376   0.379   0.396   0.399   0.399   0.404   0.408
 88 A'   38 A"   89 A'   90 A'   91 A'   39 A"   40 A"   92 A'                 
  0.410   0.425   0.427   0.434   0.439   0.445   0.452   0.460
 93 A'   94 A'   41 A"   95 A'   96 A'   97 A'   98 A'   99 A'                 
  0.463   0.466   0.474   0.488   0.488   0.498   0.511   0.521
100 A'  101 A'  102 A'   42 A"  103 A'   43 A"  104 A'  105 A'                 
  0.527   0.529   0.570   0.594   0.602   0.631   0.644   0.657
106 A'  107 A'  108 A'   44 A"  109 A'  110 A'  111 A'  112 A'                 
  0.669   0.716   0.725   0.730   0.733   0.737   0.738   0.754
113 A'  114 A'  115 A'   45 A"  116 A'   46 A"   47 A"  117 A'                 
  0.754   0.758   0.761   0.777   0.778   0.785   0.789   0.798
 48 A"  118 A'   49 A"  119 A'  120 A'   50 A"  121 A'  122 A'                 
  0.800   0.804   0.811   0.833   0.837   0.849   0.856   0.858
 51 A"   52 A"  123 A'   53 A"  124 A'   54 A"  125 A'   55 A"                 
  0.867   0.878   0.887   0.899   0.913   0.925   0.928   0.932
126 A'   56 A"  127 A'  128 A'  129 A'  130 A'   57 A"   58 A"                 
  0.937   0.940   0.945   0.954   0.966   0.974   0.977   0.982
131 A'   59 A"  132 A'  133 A'  134 A'  135 A'  136 A'   60 A"                 
  0.991   0.996   1.008   1.036   1.048   1.056   1.060   1.070
137 A'  138 A'  139 A'  140 A'  141 A'  142 A'   61 A"  143 A'                 
  1.075   1.077   1.088   1.093   1.094   1.113   1.114   1.126
144 A'  145 A'  146 A'  147 A'  148 A'   62 A"   63 A"  149 A'                 
  1.134   1.143   1.154   1.162   1.170   1.186   1.196   1.212
150 A'   64 A"  151 A'  152 A'  153 A'  154 A'   65 A"   66 A"                 
  1.214   1.223   1.231   1.234   1.254   1.256   1.262   1.272
155 A'  156 A'   67 A"  157 A'   68 A"  158 A'  159 A'  160 A'                 
  1.287   1.317   1.327   1.333   1.347   1.371   1.375   1.377
161 A'   69 A"   70 A"   71 A"  162 A'   72 A"   73 A"  163 A'                 
  1.399   1.413   1.426   1.429   1.463   1.465   1.512   1.542
164 A'   74 A"   75 A"  165 A'  166 A'   76 A"  167 A'  168 A'                 
  1.568   1.695   1.700   1.741   1.768   1.775   1.783   1.785
169 A'   77 A"  170 A'  171 A'  172 A'   78 A"  173 A'   79 A"                 
  1.790   1.797   1.816   1.827   1.832   1.840   1.849   1.851
174 A'  175 A'  176 A'   80 A"   81 A"  177 A'   82 A"  178 A'                 
  1.873   1.880   1.881   1.901   1.920   1.930   1.939   1.941
179 A'   83 A"  180 A'   84 A"  181 A'  182 A'  183 A'   85 A"                 
  1.959   1.982   2.009   2.019   2.027   2.036   2.045   2.054
184 A'  185 A'  186 A'   86 A"  187 A'   87 A"   88 A"  188 A'                 
  2.058   2.059   2.094   2.099   2.116   2.117   2.145   2.155
 89 A"  189 A'  190 A'   90 A"  191 A'   91 A"  192 A'   92 A"                 
  2.180   2.201   2.218   2.221   2.222   2.223   2.238   2.244
193 A'   93 A"  194 A'   94 A"  195 A'   95 A"   96 A"  196 A'                 
  2.259   2.259   2.271   2.272   2.290   2.299   2.317   2.330
197 A'   97 A"  198 A'   98 A"  199 A'  200 A'  201 A'   99 A"                 
  2.347   2.356   2.364   2.365   2.380   2.409   2.422   2.457
202 A'  203 A'  100 A"  204 A'  205 A'  101 A"  206 A'  102 A"                 
  2.471   2.571   2.591   2.626   2.644   2.658   2.695   2.711
207 A'  103 A"  208 A'  209 A'  104 A"  210 A'  211 A'  105 A"                 
  2.727   2.734   2.790   2.813   2.838   2.845   2.847   2.854
106 A"  212 A'  213 A'  107 A"  108 A"  214 A'  215 A'  216 A'                 
  2.881   2.909   2.916   2.917   2.948   2.954   2.968   2.978
217 A'  218 A'  109 A"  219 A'  220 A'  110 A"  221 A'  222 A'                 
  3.009   3.022   3.033   3.041   3.048   3.053   3.054   3.066
223 A'  224 A'  225 A'  111 A"  226 A'  227 A'  112 A"  228 A'                 
  3.076   3.088   3.091   3.098   3.116   3.136   3.147   3.169
229 A'  230 A'  113 A"  231 A'  232 A'  233 A'  234 A'  235 A'                 
  3.170   3.186   3.207   3.246   3.250   3.253   3.253   3.266
114 A"  236 A'  115 A"  116 A"  117 A"  237 A'  118 A"  238 A'                 
  3.288   3.294   3.314   3.315   3.325   3.326   3.345   3.355
119 A"  239 A'  240 A'  120 A"  121 A"  241 A'  242 A'  122 A"                 
  3.430   3.436   3.481   3.508   3.531   3.576   3.655   3.720
243 A'  123 A"  244 A'  124 A"  125 A"  245 A'  246 A'  247 A'                 
  3.765   3.782   3.809   3.860   3.870   3.910   3.914   3.935
126 A"  248 A'  249 A'  250 A'  251 A'  127 A"  252 A'  253 A'                 
  3.961   3.974   4.004   4.064   4.075   4.107   4.153   4.397
254 A'  255 A'  256 A'  257 A'  258 A'  259 A'  260 A'  128 A"                 
  4.400   4.403   4.409   4.472   4.483   4.509   4.560   4.563
261 A'  262 A'  129 A"  263 A'  264 A'  265 A'  266 A'  130 A"                 
  4.572   4.649   4.861   5.258   5.287   5.486   5.676  24.786
267 A'  268 A'  269 A'  131 A"  270 A'  271 A'  272 A'  273 A'                 
 24.804  25.040  25.124  25.125  25.146  25.177  25.229  25.241
274 A'  275 A'  276 A'  132 A"  277 A'  278 A'  279 A'  280 A'                 
 25.241  25.290  25.345  25.350  25.377  37.111
133 A"  281 A'  282 A'  283 A'  284 A'  285 A'                                 
 --------------------------------------------------------------

          Ground-State Mulliken Net Atomic Charges

     Atom                 Charge (a.u.)
  ----------------------------------------
      1 C                    -0.144846
      2 C                    -0.258412
      3 C                    -0.270576
      4 C                    -0.202519
      5 C                    -0.270576
      6 C                    -0.258412
      7 H                     0.210069
      8 H                     0.210644
      9 H                     0.210453
     10 H                     0.204102
     11 H                     0.210453
     12 H                     0.210644
     13 H                     0.681568
     14 N                     0.288183
     15 C                    -0.243004
     16 C                    -0.110847
     17 C                     0.271224
     18 C                    -0.367687
     19 C                    -0.128329
     20 C                    -0.135636
     21 C                    -0.396143
     22 C                    -0.817496
     23 H                     0.164404
     24 H                     0.211232
     25 H                     0.162299
     26 H                     0.201801
     27 H                     0.182278
     28 H                     0.185131
  ----------------------------------------
  Sum of atomic charges =    -0.000000

 -----------------------------------------------------------------
                    Cartesian Multipole Moments
 -----------------------------------------------------------------
    Charge (ESU x 10^10)
                -0.0000
    Dipole Moment (Debye)
         X      -3.0872      Y       0.0743      Z       0.0000
       Tot       3.0881
    Quadrupole Moments (Debye-Ang)
        XX     -89.9945     XY      -2.5388     YY     -81.0281
        XZ      -0.0000     YZ      -0.0000     ZZ     -91.0964
    Octopole Moments (Debye-Ang^2)
       XXX      38.9184    XXY      20.6309    XYY      -6.3325
       YYY       0.2992    XXZ       0.0000    XYZ      -0.0000
       YYZ       0.0000    XZZ     -31.8196    YZZ      -2.6069
       ZZZ       0.0000
    Hexadecapole Moments (Debye-Ang^3)
      XXXX   -3809.5090   XXXY     -63.1758   XXYY    -742.2488
      XYYY     -16.5610   YYYY    -969.8786   XXXZ      -0.0000
      XXYZ      -0.0000   XYYZ      -0.0000   YYYZ      -0.0000
      XXZZ    -699.3264   XYZZ       1.5669   YYZZ    -250.9938
      XZZZ      -0.0000   YZZZ      -0.0000   ZZZZ    -338.1796
 -----------------------------------------------------------------
 Mayer SCF Bond Order, atomic valence on the diagonal:

            1           2           3           4           5           6
    1   4.3755394   1.5687932   0.1846974  -0.1219777   0.1846974   1.5687932
    2   1.5687932   4.2351956   1.6162642   0.1080330  -0.0574690   0.1187962
    3   0.1846974   1.6162642   4.2943586   1.6147261   0.0615005  -0.0574690
    4  -0.1219777   0.1080330   1.6147261   4.2528157   1.6147261   0.1080330
    5   0.1846974  -0.0574690   0.0615005   1.6147261   4.2943586   1.6162642
    6   1.5687932   0.1187962  -0.0574690   0.1080330   1.6162642   4.2351956
    7   0.9188774  -0.0065945   0.0083999  -0.0085929   0.0083999  -0.0065945
    8  -0.0007728   0.8965074   0.0119074   0.0066966  -0.0093137   0.0131731
    9   0.0138879   0.0056755   0.8931013   0.0054005   0.0128146  -0.0111586
   10  -0.0078777   0.0066059  -0.0022011   0.9200727  -0.0022011   0.0066059
   11   0.0138879  -0.0111586   0.0128146   0.0054005   0.8931013   0.0056755
   12  -0.0007728   0.0131731  -0.0093137   0.0066966   0.0119074   0.8965074
   13  -0.0669382  -0.0413638  -0.0453937  -0.0631673  -0.0453937  -0.0413638
   14  -0.0413270  -0.0661178  -0.0932618  -0.0803749  -0.0932618  -0.0661178
   15   0.0234728   0.0170959   0.0460039   0.0721702   0.0460039   0.0170959
   16  -0.0068545  -0.0006705   0.0172779   0.0173519   0.0172779  -0.0006705
   17  -0.0149269  -0.0130056  -0.0142379  -0.0292526  -0.0142379  -0.0130056
   18   0.2461370   0.1488748   0.1079003   0.0348308   0.1079003   0.1488748
   19  -0.0406530  -0.0556767  -0.0412990   0.0168480  -0.0412990  -0.0556767
   20  -0.0656141  -0.0164891  -0.0101214  -0.0062122  -0.0101214  -0.0164891
   21  -0.0017660   0.0024655  -0.0039992   0.0039456  -0.0039992   0.0024655
   22  -0.0166954  -0.0045127  -0.0038545   0.0043101  -0.0038545  -0.0045127
   23  -0.0003058   0.0026302   0.0083218   0.0243616   0.0083218   0.0026302
   24  -0.0030608   0.0007560  -0.0005023  -0.0004367  -0.0005023   0.0007560
   25   0.0419446   0.0024629  -0.0075560   0.0004849  -0.0075560   0.0024629
   26   0.0001982  -0.0003611   0.0004358  -0.0007909   0.0004358  -0.0003611
   27  -0.0001329   0.0002193   0.0000195  -0.0000992   0.0000195   0.0002193
   28  -0.0001721   0.0002621   0.0001976  -0.0003683   0.0001976   0.0002621
            7           8           9          10          11          12
    1   0.9188774  -0.0007728   0.0138879  -0.0078777   0.0138879  -0.0007728
    2  -0.0065945   0.8965074   0.0056755   0.0066059  -0.0111586   0.0131731
    3   0.0083999   0.0119074   0.8931013  -0.0022011   0.0128146  -0.0093137
    4  -0.0085929   0.0066966   0.0054005   0.9200727   0.0054005   0.0066966
    5   0.0083999  -0.0093137   0.0128146  -0.0022011   0.8931013   0.0119074
    6  -0.0065945   0.0131731  -0.0111586   0.0066059   0.0056755   0.8965074
    7   0.9231545   0.0029408   0.0011954   0.0000668   0.0011954   0.0029408
    8   0.0029408   0.9232482   0.0035176   0.0011168   0.0000085   0.0013242
    9   0.0011954   0.0035176   0.9203605   0.0022601   0.0013554   0.0000085
   10   0.0000668   0.0011168   0.0022601   0.9291148   0.0022601   0.0011168
   11   0.0011954   0.0000085   0.0013554   0.0022601   0.9203605   0.0035176
   12   0.0029408   0.0013242   0.0000085   0.0011168   0.0035176   0.9232482
   13  -0.0028753  -0.0060342  -0.0073193   0.0010796  -0.0073193  -0.0060342
   14  -0.0014215  -0.0013088  -0.0032464  -0.0013454  -0.0032464  -0.0013088
   15  -0.0002997   0.0010963   0.0000440   0.0014560   0.0000440   0.0010963
   16   0.0002499  -0.0011844   0.0003922  -0.0008104   0.0003922  -0.0011844
   17  -0.0046069  -0.0006858   0.0007372  -0.0021419   0.0007372  -0.0006858
   18   0.0084814  -0.0011118   0.0026558   0.0019135   0.0026558  -0.0011118
   19  -0.0004576   0.0036011  -0.0009271   0.0002243  -0.0009271   0.0036011
   20  -0.0027305   0.0013520   0.0000411  -0.0004667   0.0000411   0.0013520
   21  -0.0018732   0.0007811   0.0002249   0.0000928   0.0002249   0.0007811
   22   0.0031991  -0.0013183  -0.0000350  -0.0003932  -0.0000350  -0.0013183
   23  -0.0000838  -0.0000202   0.0000319   0.0015984   0.0000319  -0.0000202
   24  -0.0000805   0.0000728  -0.0000691   0.0000560  -0.0000691   0.0000728
   25   0.0032333   0.0009548  -0.0002540   0.0000307  -0.0002540   0.0009548
   26   0.0001444  -0.0000852   0.0000223  -0.0000057   0.0000223  -0.0000852
   27  -0.0000618   0.0000479  -0.0000037  -0.0000001  -0.0000037   0.0000479
   28   0.0001027  -0.0000151   0.0000075   0.0000020   0.0000075  -0.0000151
           13          14          15          16          17          18
    1  -0.0669382  -0.0413270   0.0234728  -0.0068545  -0.0149269   0.2461370
    2  -0.0413638  -0.0661178   0.0170959  -0.0006705  -0.0130056   0.1488748
    3  -0.0453937  -0.0932618   0.0460039   0.0172779  -0.0142379   0.1079003
    4  -0.0631673  -0.0803749   0.0721702   0.0173519  -0.0292526   0.0348308
    5  -0.0453937  -0.0932618   0.0460039   0.0172779  -0.0142379   0.1079003
    6  -0.0413638  -0.0661178   0.0170959  -0.0006705  -0.0130056   0.1488748
    7  -0.0028753  -0.0014215  -0.0002997   0.0002499  -0.0046069   0.0084814
    8  -0.0060342  -0.0013088   0.0010963  -0.0011844  -0.0006858  -0.0011118
    9  -0.0073193  -0.0032464   0.0000440   0.0003922   0.0007372   0.0026558
   10   0.0010796  -0.0013454   0.0014560  -0.0008104  -0.0021419   0.0019135
   11  -0.0073193  -0.0032464   0.0000440   0.0003922   0.0007372   0.0026558
   12  -0.0060342  -0.0013088   0.0010963  -0.0011844  -0.0006858  -0.0011118
   13   0.1157987   0.9153416  -0.0309918  -0.1031308  -0.1931567  -0.2879789
   14   0.9153416   1.4857140   0.8744920  -0.0716461  -0.1184547   0.7292215
   15  -0.0309918   0.8744920   4.2473056   1.9995410   0.1730335   0.1204533
   16  -0.1031308  -0.0716461   1.9995410   4.2574075   1.1322072   0.3177010
   17  -0.1931567  -0.1184547   0.1730335   1.1322072   4.0180933   1.6461725
   18  -0.2879789   0.7292215   0.1204533   0.3177010   1.6461725   4.2201709
   19   0.1013224  -0.2759619  -0.0847852   0.2585810   0.4784237   0.8169022
   20  -0.0085507   0.0149109   0.0339389  -0.0199898  -0.1347278  -0.1568816
   21   0.0116310   0.0239338   0.0109604  -0.0225842  -0.2074310  -0.2263761
   22   0.0274706  -0.1090373   0.0028339  -0.1750638   1.1997150   0.2180637
   23  -0.0113740  -0.0518118   0.8707371   0.0660649   0.0569454   0.0191762
   24   0.0088282   0.0178477   0.0424251   0.8209907   0.0168051   0.0538254
   25   0.0194331  -0.0106088   0.0000955   0.0080072   0.0635597   0.0314958
   26  -0.0000200  -0.0001819   0.0000150  -0.0017702  -0.0002785   0.0800018
   27  -0.0000116  -0.0001591   0.0009815   0.0069921   0.0459462  -0.0099250
   28  -0.0008906   0.0001668   0.0082959  -0.0000598  -0.0353540   0.0603184
           19          20          21          22          23          24
    1  -0.0406530  -0.0656141  -0.0017660  -0.0166954  -0.0003058  -0.0030608
    2  -0.0556767  -0.0164891   0.0024655  -0.0045127   0.0026302   0.0007560
    3  -0.0412990  -0.0101214  -0.0039992  -0.0038545   0.0083218  -0.0005023
    4   0.0168480  -0.0062122   0.0039456   0.0043101   0.0243616  -0.0004367
    5  -0.0412990  -0.0101214  -0.0039992  -0.0038545   0.0083218  -0.0005023
    6  -0.0556767  -0.0164891   0.0024655  -0.0045127   0.0026302   0.0007560
    7  -0.0004576  -0.0027305  -0.0018732   0.0031991  -0.0000838  -0.0000805
    8   0.0036011   0.0013520   0.0007811  -0.0013183  -0.0000202   0.0000728
    9  -0.0009271   0.0000411   0.0002249  -0.0000350   0.0000319  -0.0000691
   10   0.0002243  -0.0004667   0.0000928  -0.0003932   0.0015984   0.0000560
   11  -0.0009271   0.0000411   0.0002249  -0.0000350   0.0000319  -0.0000691
   12   0.0036011   0.0013520   0.0007811  -0.0013183  -0.0000202   0.0000728
   13   0.1013224  -0.0085507   0.0116310   0.0274706  -0.0113740   0.0088282
   14  -0.2759619   0.0149109   0.0239338  -0.1090373  -0.0518118   0.0178477
   15  -0.0847852   0.0339389   0.0109604   0.0028339   0.8707371   0.0424251
   16   0.2585810  -0.0199898  -0.0225842  -0.1750638   0.0660649   0.8209907
   17   0.4784237  -0.1347278  -0.2074310   1.1997150   0.0569454   0.0168051
   18   0.8169022  -0.1568816  -0.2263761   0.2180637   0.0191762   0.0538254
   19   4.2940267   1.8632987   0.1056472   0.4787173  -0.0063225  -0.0109260
   20   1.8632987   3.6483286   1.4248198  -0.1229309  -0.0014728   0.0032541
   21   0.1056472   1.4248198   4.1990886   2.0857479   0.0002560  -0.0157598
   22   0.4787173  -0.1229309   2.0857479   4.3505488   0.0163511  -0.0474214
   23  -0.0063225  -0.0014728   0.0002560   0.0163511   1.0088250   0.0027297
   24  -0.0109260   0.0032541  -0.0157598  -0.0474214   0.0027297   0.8948316
   25   0.8599654  -0.0125856   0.0105177  -0.0145572  -0.0000583  -0.0006058
   26  -0.0550680   0.8677558   0.0358197  -0.0227116   0.0000931   0.0003840
   27  -0.0066665   0.0267563   0.9028880  -0.0256846  -0.0000187  -0.0004296
   28  -0.0164591  -0.0038082   0.0596745   0.8680766   0.0000316   0.0058917
           25          26          27          28
    1   0.0419446   0.0001982  -0.0001329  -0.0001721
    2   0.0024629  -0.0003611   0.0002193   0.0002621
    3  -0.0075560   0.0004358   0.0000195   0.0001976
    4   0.0004849  -0.0007909  -0.0000992  -0.0003683
    5  -0.0075560   0.0004358   0.0000195   0.0001976
    6   0.0024629  -0.0003611   0.0002193   0.0002621
    7   0.0032333   0.0001444  -0.0000618   0.0001027
    8   0.0009548  -0.0000852   0.0000479  -0.0000151
    9  -0.0002540   0.0000223  -0.0000037   0.0000075
   10   0.0000307  -0.0000057  -0.0000001   0.0000020
   11  -0.0002540   0.0000223  -0.0000037   0.0000075
   12   0.0009548  -0.0000852   0.0000479  -0.0000151
   13   0.0194331  -0.0000200  -0.0000116  -0.0008906
   14  -0.0106088  -0.0001819  -0.0001591   0.0001668
   15   0.0000955   0.0000150   0.0009815   0.0082959
   16   0.0080072  -0.0017702   0.0069921  -0.0000598
   17   0.0635597  -0.0002785   0.0459462  -0.0353540
   18   0.0314958   0.0800018  -0.0099250   0.0603184
   19   0.8599654  -0.0550680  -0.0066665  -0.0164591
   20  -0.0125856   0.8677558   0.0267563  -0.0038082
   21   0.0105177   0.0358197   0.9028880   0.0596745
   22  -0.0145572  -0.0227116  -0.0256846   0.8680766
   23  -0.0000583   0.0000931  -0.0000187   0.0000316
   24  -0.0006058   0.0003840  -0.0004296   0.0058917
   25   0.9882726  -0.0034285   0.0007571  -0.0006234
   26  -0.0034285   0.9021784   0.0011338   0.0008646
   27   0.0007571   0.0011338   0.9429385   0.0001066
   28  -0.0006234   0.0008646   0.0001066   0.9467000


 JobOver = TRUE
Archival summary:
1\1\qciep03\SP\HF\BasisUnspecified\11413\jcartus\ThuJan2518:05:112018ThuJan2518:05:112018\0\\#,HF,BasisUnspecified,\\0,1\N\H,1,1.00733\C,1,1.36945,2,125.565\C,1,1.37199,2,125.019,3,-180,0\H,4,1.07719,1,120.36,2,0,0\C,4,1.37685,1,109.563,2,180,0\H,6,1.07662,4,125.723,1,-180,0\C,3,1.39783,1,130.296,2,-0,0\H,8,1.08193,3,121.257,1,-0,0\C,8,1.38626,3,117.401,1,180,0\H,10,1.08161,8,119.425,3,-180,0\C,10,1.40977,8,121.221,3,0,0\H,12,1.08159,10,119.09,8,-180,0\C,12,1.38491,10,121.326,8,-0,0\H,14,1.08231,12,120.56,10,-180,0\C,14,1.40532,12,118.927,10,0,0\C,2,2.58728,1,147.12,3,-180,0\H,17,1.08144,2,120.546,1,-0,0\C,17,1.39516,2,75.2758,1,-116.425,0\H,19,1.08119,17,120.025,2,116.753,0\C,19,1.39463,17,119.987,2,-63.0309,0\H,21,1.08117,19,119.998,17,179.744,0\C,21,1.39482,19,119.975,17,0.00343747,0\H,23,1.08136,21,119.972,19,-179.722,0\C,23,1.39482,21,120.056,19,0.112176,0\H,25,1.08117,23,120.027,21,179.629,0\C,25,1.39463,23,119.975,21,-0.112176,0\H,27,1.08119,25,119.988,23,179.78,0\\HF=-592.307479\\@

 Total job time:  810.35s(wall), 808.34s(cpu) 
 Thu Jan 25 18:05:11 2018

        *************************************************************
        *                                                           *
        *  Thank you very much for using Q-Chem.  Have a nice day.  *
        *                                                           *
        *************************************************************


*** MISSION COMPLETED -- STARFLEET OUT ***

0 sent ACK to 0 
now end server 0 ... 
