Process 0 of 1 is on qciep03 - thread support 0
initial socket setup ...start
initial socket setup ...done 
now start server 0 ... 
qciep03.tugraz.at 127.0.1
Q-Chem Developer Version! Running on 127.0.1.*
                  Welcome to Q-Chem
     A Quantum Leap Into The Future Of Chemistry


 Q-Chem 5.0, Q-Chem, Inc., Pleasanton, CA (2017)

 Yihan Shao,  Zhengting Gan,  E. Epifanovsky,  A. T. B. Gilbert,  M. Wormit,  
 J. Kussmann,  A. W. Lange,  A. Behn,  Jia Deng,  Xintian Feng,  D. Ghosh,  
 M. Goldey,  P. R. Horn,  L. D. Jacobson,  I. Kaliman,  T. Kus,  A. Landau,  
 Jie Liu,  E. I. Proynov,  R. M. Richard,  R. P. Steele,  E. J. Sundstrom,  
 H. L. Woodcock III,  P. M. Zimmerman,  D. Zuev,  B. Albrecht,  E. Alguire,  
 S. A. Baeppler,  D. Barton,  Z. Benda,  Y. A. Bernard,  E. J. Berquist,  
 K. B. Bravaya,  H. Burton,  D. Casanova,  Chun-Min Chang,  Yunqing Chen,  
 A. Chien,  K. D. Closser,  M. P. Coons,  S. Dasgupta,  A. L. Dempwolff,  
 M. Diedenhofen,  Hainam Do,  R. G. Edgar,  Po-Tung Fang,  S. Fatehi,  
 Qingguo Feng,  J. Fosso-Tande,  Qinghui Ge,  A. Ghysels,  G. Gidofalvi,  
 J. Gomes,  J. Gonthier,  A. Gunina,  M. W. D. Hanson-Heine,  
 P. H. P. Harbach,  A. W. Hauser,  J. E. Herr,  E. G. Hohenstein,  
 Z. C. Holden,  Kerwin Hui,  T.-C. Jagau,  Hyunjun Ji,  B. Kaduk,  
 K. Khistyaev,  Jaehoon Kim,  P. Klunzinger,  K. Koh,  D. Kosenkov,  
 L. Koulias,  T. Kowalczyk,  C. M. Krauter,  A. Kunitsa,  Ka Un Lao,  
 A. Laurent,  K. V. Lawler,  Joonho Lee,  D. Lefrancois,  S. Lehtola,  
 D. S. Levine,  Yi-Pei Li,  You-Sheng Lin,  Fenglai Liu,  E. Livshits,  
 A. Luenser,  P. Manohar,  E. Mansoor,  S. F. Manzer,  Shan-Ping Mao,  
 Yuezhi Mao,  N. Mardirossian,  A. V. Marenich,  T. Markovich,  
 L. A. Martinez-Martinez,  S. A. Maurer,  N. J. Mayhall,  S. C. McKenzie,  
 J.-M. Mewes,  A. F. Morrison,  J. W. Mullinax,  K. Nanda,  
 T. S. Nguyen-Beck,  R. Olivares-Amaya,  J. A. Parkhill,  T. M. Perrine,  
 F. Plasser,  S. Prager,  A. Prociuk,  E. Ramos,  D. R. Rehn,  F. Rob,  
 M. Schneider,  N. Sergueev,  S. M. Sharada,  S. Sharma,  D. W. Small,  
 T. Stauch,  T. Stein,  Yu-Chuan Su,  A. J. W. Thom,  A. Tkatchenko,  
 T. Tsuchimochi,  L. Vogt,  O. Vydrov,  M. A. Watson,  J. Wenzel,  
 M. de Wergifosse,  T. A. Wesolowski,  A. White,  J. Witte,  A. Yamada,  
 Jun Yang,  K. Yao,  S. Yeganeh,  S. R. Yost,  Zhi-Qiang You,  A. Zech,  
 Igor Ying Zhang,  Xing Zhang,  Yan Zhao,  Ying Zhu,  B. R. Brooks,  
 G. K. L. Chan,  C. J. Cramer,  M. S. Gordon,  W. J. Hehre,  A. Klamt,  
 M. W. Schmidt,  C. D. Sherrill,  D. G. Truhlar,  A. Aspuru-Guzik,  R. Baer,  
 A. T. Bell,  N. A. Besley,  Jeng-Da Chai,  R. A. DiStasio Jr.,  A. Dreuw,  
 B. D. Dunietz,  T. R. Furlani,  Chao-Ping Hsu,  Yousung Jung,  Jing Kong,  
 D. S. Lambrecht,  WanZhen Liang,  C. Ochsenfeld,  V. A. Rassolov,  
 L. V. Slipchenko,  J. E. Subotnik,  T. Van Voorhis,  J. M. Herbert,  
 A. I. Krylov,  P. M. W. Gill,  M. Head-Gordon

 Contributors to earlier versions of Q-Chem not listed above: 
 R. D. Adamson,  B. Austin,  J. Baker,  G. J. O. Beran,  K. Brandhorst,  
 S. T. Brown,  E. F. C. Byrd,  A. K. Chakraborty,  C.-L. Cheng,  
 Siu Hung Chien,  D. M. Chipman,  D. L. Crittenden,  H. Dachsel,  
 R. J. Doerksen,  A. D. Dutoi,  L. Fusti-Molnar,  W. A. Goddard III,  
 A. Golubeva-Zadorozhnaya,  S. R. Gwaltney,  G. Hawkins,  A. Heyden,  
 S. Hirata,  G. Kedziora,  F. J. Keil,  C. Kelley,  Jihan Kim,  R. A. King,  
 R. Z. Khaliullin,  P. P. Korambath,  W. Kurlancheek,  A. M. Lee,  M. S. Lee,  
 S. V. Levchenko,  Ching Yeh Lin,  D. Liotard,  R. C. Lochan,  I. Lotan,  
 P. E. Maslen,  N. Nair,  D. P. O'Neill,  D. Neuhauser,  E. Neuscamman,  
 C. M. Oana,  R. Olson,  B. Peters,  R. Peverati,  P. A. Pieniazek,  
 Y. M. Rhee,  J. Ritchie,  M. A. Rohrdanz,  E. Rosta,  N. J. Russ,  
 H. F. Schaefer III,  N. E. Schultz,  N. Shenvi,  A. C. Simmonett,  A. Sodt,  
 D. Stuck,  K. S. Thanthiriwatte,  V. Vanovschi,  Tao Wang,  A. Warshel,  
 C. F. Williams,  Q. Wu,  X. Xu,  W. Zhang

 Please cite Q-Chem as follows:
 Y. Shao et al., Mol. Phys. 113, 184-215 (2015)
 DOI: 10.1080/00268976.2014.952696

 Q-Chem 5.0.2 for Intel X86 EM64T Linux

 Parts of Q-Chem use Armadillo 5.200.1 (Boston Tea Smuggler).
 http://arma.sourceforge.net/

 Q-Chem begins on Thu Jan 25 17:42:39 2018  


Host: 0

     Scratch files written to /home/jcartus/scratch/Pyrazine-dimer_mono2.dir//
 Using version located at /usr/local/qchem/bin/qchem

 Parallel job on  1  processors

Total Memory Limit in MB = 2000
Mega-Array Size in MB = 192

Checking the input file for inconsistencies... 	...done.
Finally everything over in PARseQInput

--------------------------------------------------------------
User input:
--------------------------------------------------------------
$rem
SCF_PRINT                     1
BASIS                         6-311++g**
SCF_SAVE_MATRICES             1
SCF_CONVERGENCE               5
SCF_FINAL_PRINT               1
METHOD                        hf
JOBTYPE                       sp
$end

$molecule
0 1
C    -1.2471894    -1.1718212    -0.6961388
C    -1.2471894    -1.1718212    0.6961388
N    -0.258951    -1.7235771    1.4144796
C    0.7315327    -2.2652221    0.6967288
C    0.7315327    -2.2652221    -0.6967288
N    -0.258951    -1.7235771    -1.4144796
H    -2.0634363    -0.7223199    -1.2472797
H    -2.0634363    -0.7223199    1.2472797
H    1.5488004    -2.7128282    1.2475604
H    1.5488004    -2.7128282    -1.2475604
$end


--------------------------------------------------------------
 I,J,IOp=           1           2           2  D=   1.2428159516112401E-014 Fix sym
 I,J,IOp=           3           6           2  D=   1.4387203022967762E-014 Fix sym
 I,J,IOp=           4           5           2  D=   1.2803485517721727E-014 Fix sym
 I,J,IOp=           7           8           2  D=   2.4226745406724358E-014 Fix sym
 I,J,IOp=           9          10           2  D=   2.4344598752875026E-014 Fix sym
 ----------------------------------------------------------------
             Standard Nuclear Orientation (Angstroms)
    I     Atom           X                Y                Z
 ----------------------------------------------------------------
    1      C       1.1308469374     0.0020260541     0.6961388000
    2      C       1.1308469374     0.0020260541    -0.6961388000
    3      N      -0.0009746500    -0.0034147803    -1.4144796000
    4      C      -1.1298754658     0.0010812240    -0.6967288000
    5      C      -1.1298754658     0.0010812240     0.6967288000
    6      N      -0.0009746500    -0.0034147803     1.4144796000
    7      H       2.0626782000     0.0010677248     1.2472797000
    8      H       2.0626782000     0.0010677248    -1.2472797000
    9      H      -2.0616844789     0.0041920683    -1.2475604000
   10      H      -2.0616844789     0.0041920683     1.2475604000
 ----------------------------------------------------------------
 Molecular Point Group                 Cs    NOp =  2
 Largest Abelian Subgroup              Cs    NOp =  2
 Nuclear Repulsion Energy =   208.6396920345 hartrees
 There are       21 alpha and       21 beta electrons
 Requested basis set is 6-311++G(d,p)
 There are 56 shells and 160 basis functions

 Total QAlloc Memory Limit   2000 MB
 Mega-Array Size       188 MB
 MEM_STATIC part       192 MB

finished with qalloc call

                       Distance Matrix (Angstroms)
             C (  1)   C (  2)   N (  3)   C (  4)   C (  5)   N (  6)
   C (  2)  1.392278
   N (  3)  2.394945  1.340546
   C (  4)  2.655362  2.260723  1.337761
   C (  5)  2.260723  2.655362  2.394084  1.393458
   N (  6)  1.340546  2.394945  2.828959  2.394084  1.337761
   H (  7)  1.082620  2.155269  3.368033  3.737856  3.239677  2.070420
   H (  8)  2.155269  1.082620  2.070420  3.239677  3.737856  3.368033
   H (  9)  3.737677  3.239804  2.067473  1.082448  2.156047  3.366458
   H ( 10)  3.239804  3.737677  3.366458  2.156047  1.082448  2.067473
             H (  7)   H (  8)   H (  9)
   H (  8)  2.494559
   H (  9)  4.820229  4.124364
   H ( 10)  4.124364  4.820229  2.495121

 Job number = 2, Threshold = 1.00E-08
Integral type ranges set in mkLRange.C for JobNum: 2  <1-21|1-21>
Symmetry turned off temporarily
 Using the largest function pair in Schwarz integrals
Total number of integrals generated =          220862
Symmetry turned back on
 A cutoff of  1.0D-08 yielded   1494 shell pairs
 There are     12693 function pairs (     13694 Cartesian)
 Job number = 11, Threshold = 1.00E-08
Integral type ranges set in mkLRange.C for JobNum: 11  <1-21|22-22>
Total number of integrals generated =           70030
 Smallest overlap matrix eigenvalue = 1.90E-05

 Q-Chem warning in module /usr/local/qchem/stvman/mkSTV.C, line 295:

 Overlap eigenvalue is smaller than square root of threshold

 Multipole matrices computed through 2nd order

 Scale SEOQF with 1.000000e-01/1.000000e-01/1.000000e-01

 Standard Electronic Orientation quadrupole field applied
 Nucleus-field energy     =    -0.0000000032 hartrees
 ENuRep (before)= 208.6396920345
 ENucField = -0.0000000032
 ENuRep (after) = 208.6396920313
 Guess from superposition of atomic densities
 Warning:  Energy on first SCF cycle will be non-variational
 SAD guess density has 42.000000 electrons

 ==================================================
    GEN_SCFMAN: A general SCF calculation manager  
                                                   
    Authors:                                       
        -- Eric Jon Sundstrom 2008-2014            
        -- Paul Horn 2010-2015                     
        -- Yuezhi Mao 2012-                        
        -- Dmitri Zuev 2014                        
        -- Alec White 2015-                        
        -- David Stuck 2015                        
        -- Shaama M.S. 2015                        
        -- Shane Yost 2015-                         
        -- Joonho Lee 2016-                        
        -- David Small 2016-                       
        -- Daniel Levine 2016-                     
        -- Susi Lehtola 2017-                      
        -- Hugh Burton 2017-                       
 ==================================================
 Hartree-Fock
Finding J and K together
 Job number = 22, Threshold = 1.00E-08
Integral type ranges set in mkLRange.C for JobNum: 22  <1-21|1-21>
 MakeJK  time:  CPU       1.67 s  wall       1.67 s
 HF Exchange:              -36.04266926070668
 One-Electron:             -765.67342349322530
 Total Coulomb:            328.08061997305634
 Nuclear repulsion:        208.63969203128178
 A restricted SCF calculation will be
 performed using DIIS
 SCF converges when DIIS error is below 1.0e-05
 ---------------------------------------
  Cycle       Energy         DIIS error
 ---------------------------------------
Finding J and K together
 Job number = 22, Threshold = 1.00E-08
Integral type ranges set in mkLRange.C for JobNum: 22  <1-21|1-21>
 MakeJK  time:  CPU       6.29 s  wall       6.29 s
 HF Exchange:              -35.22692352759353
 One-Electron:             -767.24008490669473
 Total Coulomb:            331.15678694074148
 Nuclear repulsion:        208.63969203128178
    1    -264.9957807496      5.57e-02  
Finding J and K together
 Job number = 22, Threshold = 1.00E-08
Integral type ranges set in mkLRange.C for JobNum: 22  <1-21|1-21>
 MakeJK  time:  CPU       6.54 s  wall       6.55 s
 HF Exchange:              -35.32995070341918
 One-Electron:             -768.29628170398348
 Total Coulomb:            332.25352149641867
 Nuclear repulsion:        208.63969203128178
    2    -262.6705294623      4.00e-03  
Finding J and K together
 Job number = 22, Threshold = 1.00E-08
Integral type ranges set in mkLRange.C for JobNum: 22  <1-21|1-21>
 MakeJK  time:  CPU       6.36 s  wall       6.36 s
 HF Exchange:              -35.35239624232787
 One-Electron:             -768.08355196856292
 Total Coulomb:            332.05604789775441
 Nuclear repulsion:        208.63969203128178
    3    -262.7330188797      1.56e-03  
Finding J and K together
 Job number = 22, Threshold = 1.00E-08
Integral type ranges set in mkLRange.C for JobNum: 22  <1-21|1-21>
 MakeJK  time:  CPU       6.24 s  wall       6.24 s
 HF Exchange:              -35.34530312712899
 One-Electron:             -768.03137335250642
 Total Coulomb:            331.99506578785019
 Nuclear repulsion:        208.63969203128178
    4    -262.7402082819      6.90e-04  
Finding J and K together
 Job number = 22, Threshold = 1.00E-08
Integral type ranges set in mkLRange.C for JobNum: 22  <1-21|1-21>
 MakeJK  time:  CPU       6.46 s  wall       6.50 s
 HF Exchange:              -35.35114048999387
 One-Electron:             -768.09983493070865
 Total Coulomb:            332.06928358247973
 Nuclear repulsion:        208.63969203128178
    5    -262.7419186605      1.23e-04  
Finding J and K together
 Job number = 22, Threshold = 1.00E-08
Integral type ranges set in mkLRange.C for JobNum: 22  <1-21|1-21>
 MakeJK  time:  CPU       6.51 s  wall       6.51 s
 HF Exchange:              -35.34964858901465
 One-Electron:             -768.07800987786766
 Total Coulomb:            332.04595154494518
 Nuclear repulsion:        208.63969203128178
    6    -262.7419998069      4.21e-05  
Finding J and K together
 Job number = 22, Threshold = 1.00E-08
Integral type ranges set in mkLRange.C for JobNum: 22  <1-21|1-21>
 MakeJK  time:  CPU       6.27 s  wall       6.28 s
 HF Exchange:              -35.34987446547100
 One-Electron:             -768.08111310495235
 Total Coulomb:            332.04927841543287
 Nuclear repulsion:        208.63969203128178
    7    -262.7420148907      1.61e-05  
    8    -262.7420171237      2.79e-06  Convergence criterion met
 ---------------------------------------
 SCF time:   CPU 47.28s  wall 48.00s 
 Total energy in the final basis set =     -262.7420171237
 HF Exchange:              -35.34987446547100
 One-Electron:             -768.08111310495235
 Total Coulomb:            332.04927841543287
 Nuclear repulsion:        208.63969203128178
Wall  1 = 48
Clock 1 = 47.40758895874023
 ==================================================
                  Done GEN_SCFMAN                  
 ==================================================

Symmetry turned off temporarily

 --------------------------------------------------------------
             Orbital Energies (a.u.) and Symmetries
 --------------------------------------------------------------

 Alpha MOs, Restricted
 -- Occupied --                  
-15.599 -15.599 -11.290 -11.290 -11.289 -11.289  -1.312  -1.224
  1 A"    1 A'    2 A'    3 A'    2 A"    3 A"    4 A'    4 A"                 
 -1.059  -0.908  -0.892  -0.731  -0.708  -0.681  -0.615  -0.577
  5 A'    6 A'    5 A"    7 A'    8 A'    6 A"    9 A'   10 A'                 
 -0.554  -0.504  -0.438  -0.417  -0.363
  7 A"    8 A"    9 A"   11 A'   12 A'                                         
 -- Virtual --                   
  0.041   0.045   0.060   0.065   0.066   0.099   0.105   0.120
 13 A'   14 A'   10 A"   15 A'   11 A"   12 A"   16 A'   17 A'                 
  0.128   0.136   0.140   0.142   0.146   0.173   0.179   0.186
 13 A"   14 A"   18 A'   19 A'   20 A'   21 A'   15 A"   16 A"                 
  0.187   0.201   0.205   0.206   0.209   0.256   0.284   0.308
 22 A'   17 A"   18 A"   19 A"   23 A'   20 A"   24 A'   25 A'                 
  0.312   0.322   0.341   0.349   0.357   0.365   0.374   0.386
 21 A"   26 A'   27 A'   22 A"   23 A"   28 A'   24 A"   29 A'                 
  0.397   0.425   0.428   0.435   0.499   0.530   0.548   0.661
 25 A"   30 A'   26 A"   27 A"   31 A'   28 A"   29 A"   32 A'                 
  0.687   0.687   0.700   0.723   0.738   0.743   0.746   0.788
 33 A'   30 A"   34 A'   35 A'   36 A'   37 A'   31 A"   32 A"                 
  0.795   0.856   0.904   0.927   0.930   0.983   1.005   1.006
 33 A"   34 A"   35 A"   38 A'   36 A"   39 A'   37 A"   40 A'                 
  1.032   1.038   1.077   1.107   1.117   1.135   1.145   1.182
 38 A"   39 A"   41 A'   42 A'   43 A'   40 A"   41 A"   42 A"                 
  1.192   1.196   1.199   1.282   1.314   1.343   1.384   1.465
 43 A"   44 A'   45 A'   46 A'   44 A"   47 A'   48 A'   45 A"                 
  1.514   1.544   1.589   1.702   1.780   1.817   1.841   1.848
 46 A"   49 A'   50 A'   47 A"   51 A'   52 A'   53 A'   48 A"                 
  1.915   1.933   1.992   2.001   2.034   2.043   2.053   2.071
 54 A'   49 A"   55 A'   50 A"   51 A"   56 A'   52 A"   57 A'                 
  2.177   2.204   2.282   2.302   2.334   2.377   2.569   2.597
 53 A"   58 A'   54 A"   59 A'   55 A"   56 A"   57 A"   58 A"                 
  2.618   2.668   2.672   2.761   2.786   2.832   2.892   2.934
 60 A'   61 A'   62 A'   59 A"   60 A"   63 A'   61 A"   64 A'                 
  2.982   3.000   3.001   3.033   3.059   3.119   3.203   3.206
 65 A'   62 A"   66 A'   63 A"   64 A"   67 A'   68 A'   69 A'                 
  3.240   3.275   3.313   3.327   3.363   3.386   3.667   3.728
 65 A"   66 A"   70 A'   67 A"   68 A"   69 A"   71 A'   72 A'                 
  3.807   4.007   4.063   4.082   4.222   4.326   4.429   4.450
 70 A"   73 A'   71 A"   74 A'   72 A"   75 A'   73 A"   74 A"                 
  4.523   4.752   5.046   5.333   5.855  24.900  25.015  25.217
 75 A"   76 A'   76 A"   77 A'   77 A"   78 A'   79 A'   78 A"                 
 25.218  36.928  37.108
 79 A"   80 A'   80 A"                                                         

 Beta MOs, Restricted
 -- Occupied --                  
-15.599 -15.599 -11.290 -11.290 -11.289 -11.289  -1.312  -1.224
  1 A"    1 A'    2 A'    3 A'    2 A"    3 A"    4 A'    4 A"                 
 -1.059  -0.908  -0.892  -0.731  -0.708  -0.681  -0.615  -0.577
  5 A'    6 A'    5 A"    7 A'    8 A'    6 A"    9 A'   10 A'                 
 -0.554  -0.504  -0.438  -0.417  -0.363
  7 A"    8 A"    9 A"   11 A'   12 A'                                         
 -- Virtual --                   
  0.041   0.045   0.060   0.065   0.066   0.099   0.105   0.120
 13 A'   14 A'   10 A"   15 A'   11 A"   12 A"   16 A'   17 A'                 
  0.128   0.136   0.140   0.142   0.146   0.173   0.179   0.186
 13 A"   14 A"   18 A'   19 A'   20 A'   21 A'   15 A"   16 A"                 
  0.187   0.201   0.205   0.206   0.209   0.256   0.284   0.308
 22 A'   17 A"   18 A"   19 A"   23 A'   20 A"   24 A'   25 A'                 
  0.312   0.322   0.341   0.349   0.357   0.365   0.374   0.386
 21 A"   26 A'   27 A'   22 A"   23 A"   28 A'   24 A"   29 A'                 
  0.397   0.425   0.428   0.435   0.499   0.530   0.548   0.661
 25 A"   30 A'   26 A"   27 A"   31 A'   28 A"   29 A"   32 A'                 
  0.687   0.687   0.700   0.723   0.738   0.743   0.746   0.788
 33 A'   30 A"   34 A'   35 A'   36 A'   37 A'   31 A"   32 A"                 
  0.795   0.856   0.904   0.927   0.930   0.983   1.005   1.006
 33 A"   34 A"   35 A"   38 A'   36 A"   39 A'   37 A"   40 A'                 
  1.032   1.038   1.077   1.107   1.117   1.135   1.145   1.182
 38 A"   39 A"   41 A'   42 A'   43 A'   40 A"   41 A"   42 A"                 
  1.192   1.196   1.199   1.282   1.314   1.343   1.384   1.465
 43 A"   44 A'   45 A'   46 A'   44 A"   47 A'   48 A'   45 A"                 
  1.514   1.544   1.589   1.702   1.780   1.817   1.841   1.848
 46 A"   49 A'   50 A'   47 A"   51 A'   52 A'   53 A'   48 A"                 
  1.915   1.933   1.992   2.001   2.034   2.043   2.053   2.071
 54 A'   49 A"   55 A'   50 A"   51 A"   56 A'   52 A"   57 A'                 
  2.177   2.204   2.282   2.302   2.334   2.377   2.569   2.597
 53 A"   58 A'   54 A"   59 A'   55 A"   56 A"   57 A"   58 A"                 
  2.618   2.668   2.672   2.761   2.786   2.832   2.892   2.934
 60 A'   61 A'   62 A'   59 A"   60 A"   63 A'   61 A"   64 A'                 
  2.982   3.000   3.001   3.033   3.059   3.119   3.203   3.206
 65 A'   62 A"   66 A'   63 A"   64 A"   67 A'   68 A'   69 A'                 
  3.240   3.275   3.313   3.327   3.363   3.386   3.667   3.728
 65 A"   66 A"   70 A'   67 A"   68 A"   69 A"   71 A'   72 A'                 
  3.807   4.007   4.063   4.082   4.222   4.326   4.429   4.450
 70 A"   73 A'   71 A"   74 A'   72 A"   75 A'   73 A"   74 A"                 
  4.523   4.752   5.046   5.333   5.855  24.900  25.015  25.217
 75 A"   76 A'   76 A"   77 A'   77 A"   78 A'   79 A'   78 A"                 
 25.218  36.928  37.108
 79 A"   80 A'   80 A"                                                         
 --------------------------------------------------------------

          Ground-State Mulliken Net Atomic Charges

     Atom                 Charge (a.u.)
  ----------------------------------------
      1 C                    -0.148608
      2 C                    -0.148608
      3 N                    -0.116883
      4 C                    -0.147422
      5 C                    -0.147422
      6 N                    -0.116883
      7 H                     0.206582
      8 H                     0.206582
      9 H                     0.206331
     10 H                     0.206331
  ----------------------------------------
  Sum of atomic charges =     0.000000

 -----------------------------------------------------------------
                    Cartesian Multipole Moments
 -----------------------------------------------------------------
    Charge (ESU x 10^10)
                -0.0000
    Dipole Moment (Debye)
         X      -0.0045      Y       0.0174      Z      -0.0000
       Tot       0.0180
    Quadrupole Moments (Debye-Ang)
        XX     -26.4919     XY      -0.0142     YY     -37.0695
        XZ      -0.0000     YZ      -0.0000     ZZ     -42.2621
    Octopole Moments (Debye-Ang^2)
       XXX      -0.0039    XXY       0.0383    XYY      -0.0234
       YYY      -0.0100    XXZ      -0.0000    XYZ       0.0000
       YYZ       0.0000    XZZ       0.0159    YZZ       0.0568
       ZZZ      -0.0000
    Hexadecapole Moments (Debye-Ang^3)
      XXXX    -226.9113   XXXY      -0.0951   XXYY     -55.6533
      XYYY      -0.0216   YYYY     -41.0173   XXXZ      -0.0000
      XXYZ      -0.0000   XYYZ      -0.0000   YYYZ      -0.0000
      XXZZ     -69.4807   XYZZ      -0.0333   YYZZ     -53.2303
      XZZZ       0.0000   YZZZ      -0.0000   ZZZZ    -308.2399
 -----------------------------------------------------------------
 Mayer SCF Bond Order, atomic valence on the diagonal:

            1           2           3           4           5           6
    1   3.9591518   1.4613877  -0.0087383   0.0375922   0.1483671   1.3715050
    2   1.4613877   3.9591518   1.3715050   0.1483671   0.0375922  -0.0087383
    3  -0.0087383   1.3715050   2.7260347   1.3817578  -0.0089886   0.0809098
    4   0.0375922   0.1483671   1.3817578   3.9590912   1.4515004  -0.0089886
    5   0.1483671   0.0375922  -0.0089886   1.4515004   3.9590912   1.3817578
    6   1.3715050  -0.0087383   0.0809098  -0.0089886   1.3817578   2.7260347
    7   0.9127793   0.0132886   0.0079794  -0.0082081   0.0310928  -0.0531687
    8   0.0132886   0.9127793  -0.0531687   0.0310928  -0.0082081   0.0079794
    9  -0.0082051   0.0311753  -0.0531681   0.9131511   0.0128266   0.0079463
   10   0.0311753  -0.0082051   0.0079463   0.0128266   0.9131511  -0.0531681
            7           8           9          10
    1   0.9127793   0.0132886  -0.0082051   0.0311753
    2   0.0132886   0.9127793   0.0311753  -0.0082051
    3   0.0079794  -0.0531687  -0.0531681   0.0079463
    4  -0.0082081   0.0310928   0.9131511   0.0128266
    5   0.0310928  -0.0082081   0.0128266   0.9131511
    6  -0.0531687   0.0079794   0.0079463  -0.0531681
    7   0.9111274   0.0063046   0.0000321   0.0010275
    8   0.0063046   0.9111274   0.0010275   0.0000321
    9   0.0000321   0.0010275   0.9110689   0.0062831
   10   0.0010275   0.0000321   0.0062831   0.9110689


 JobOver = TRUE
Archival summary:
1\1\qciep03\SP\HF\BasisUnspecified\244\jcartus\ThuJan2517:43:272018ThuJan2517:43:272018\0\\#,HF,BasisUnspecified,\\0,1\N\C,1,1.33776\H,2,1.08245,1,116.963\C,1,1.34055,2,115.148,3,179.566,0\H,4,1.08262,1,116.995,2,-179.853,0\C,4,1.39228,1,122.402,2,0.469493,0\H,6,1.08262,4,120.603,1,179.666,0\N,6,1.34055,4,122.402,1,-0,0\C,8,1.33776,6,115.148,4,-0.469493,0\H,9,1.08245,8,116.963,6,-179.566,0\\HF=-262.742017\\@

 Total job time:  48.24s(wall), 48.02s(cpu) 
 Thu Jan 25 17:43:27 2018

        *************************************************************
        *                                                           *
        *  Thank you very much for using Q-Chem.  Have a nice day.  *
        *                                                           *
        *************************************************************


*** MISSION COMPLETED -- STARFLEET OUT ***

0 sent ACK to 0 
now end server 0 ... 
