Process 0 of 1 is on qciep03 - thread support 0
initial socket setup ...start
initial socket setup ...done 
now start server 0 ... 
qciep03.tugraz.at 127.0.1
Q-Chem Developer Version! Running on 127.0.1.*
                  Welcome to Q-Chem
     A Quantum Leap Into The Future Of Chemistry


 Q-Chem 5.0, Q-Chem, Inc., Pleasanton, CA (2017)

 Yihan Shao,  Zhengting Gan,  E. Epifanovsky,  A. T. B. Gilbert,  M. Wormit,  
 J. Kussmann,  A. W. Lange,  A. Behn,  Jia Deng,  Xintian Feng,  D. Ghosh,  
 M. Goldey,  P. R. Horn,  L. D. Jacobson,  I. Kaliman,  T. Kus,  A. Landau,  
 Jie Liu,  E. I. Proynov,  R. M. Richard,  R. P. Steele,  E. J. Sundstrom,  
 H. L. Woodcock III,  P. M. Zimmerman,  D. Zuev,  B. Albrecht,  E. Alguire,  
 S. A. Baeppler,  D. Barton,  Z. Benda,  Y. A. Bernard,  E. J. Berquist,  
 K. B. Bravaya,  H. Burton,  D. Casanova,  Chun-Min Chang,  Yunqing Chen,  
 A. Chien,  K. D. Closser,  M. P. Coons,  S. Dasgupta,  A. L. Dempwolff,  
 M. Diedenhofen,  Hainam Do,  R. G. Edgar,  Po-Tung Fang,  S. Fatehi,  
 Qingguo Feng,  J. Fosso-Tande,  Qinghui Ge,  A. Ghysels,  G. Gidofalvi,  
 J. Gomes,  J. Gonthier,  A. Gunina,  M. W. D. Hanson-Heine,  
 P. H. P. Harbach,  A. W. Hauser,  J. E. Herr,  E. G. Hohenstein,  
 Z. C. Holden,  Kerwin Hui,  T.-C. Jagau,  Hyunjun Ji,  B. Kaduk,  
 K. Khistyaev,  Jaehoon Kim,  P. Klunzinger,  K. Koh,  D. Kosenkov,  
 L. Koulias,  T. Kowalczyk,  C. M. Krauter,  A. Kunitsa,  Ka Un Lao,  
 A. Laurent,  K. V. Lawler,  Joonho Lee,  D. Lefrancois,  S. Lehtola,  
 D. S. Levine,  Yi-Pei Li,  You-Sheng Lin,  Fenglai Liu,  E. Livshits,  
 A. Luenser,  P. Manohar,  E. Mansoor,  S. F. Manzer,  Shan-Ping Mao,  
 Yuezhi Mao,  N. Mardirossian,  A. V. Marenich,  T. Markovich,  
 L. A. Martinez-Martinez,  S. A. Maurer,  N. J. Mayhall,  S. C. McKenzie,  
 J.-M. Mewes,  A. F. Morrison,  J. W. Mullinax,  K. Nanda,  
 T. S. Nguyen-Beck,  R. Olivares-Amaya,  J. A. Parkhill,  T. M. Perrine,  
 F. Plasser,  S. Prager,  A. Prociuk,  E. Ramos,  D. R. Rehn,  F. Rob,  
 M. Schneider,  N. Sergueev,  S. M. Sharada,  S. Sharma,  D. W. Small,  
 T. Stauch,  T. Stein,  Yu-Chuan Su,  A. J. W. Thom,  A. Tkatchenko,  
 T. Tsuchimochi,  L. Vogt,  O. Vydrov,  M. A. Watson,  J. Wenzel,  
 M. de Wergifosse,  T. A. Wesolowski,  A. White,  J. Witte,  A. Yamada,  
 Jun Yang,  K. Yao,  S. Yeganeh,  S. R. Yost,  Zhi-Qiang You,  A. Zech,  
 Igor Ying Zhang,  Xing Zhang,  Yan Zhao,  Ying Zhu,  B. R. Brooks,  
 G. K. L. Chan,  C. J. Cramer,  M. S. Gordon,  W. J. Hehre,  A. Klamt,  
 M. W. Schmidt,  C. D. Sherrill,  D. G. Truhlar,  A. Aspuru-Guzik,  R. Baer,  
 A. T. Bell,  N. A. Besley,  Jeng-Da Chai,  R. A. DiStasio Jr.,  A. Dreuw,  
 B. D. Dunietz,  T. R. Furlani,  Chao-Ping Hsu,  Yousung Jung,  Jing Kong,  
 D. S. Lambrecht,  WanZhen Liang,  C. Ochsenfeld,  V. A. Rassolov,  
 L. V. Slipchenko,  J. E. Subotnik,  T. Van Voorhis,  J. M. Herbert,  
 A. I. Krylov,  P. M. W. Gill,  M. Head-Gordon

 Contributors to earlier versions of Q-Chem not listed above: 
 R. D. Adamson,  B. Austin,  J. Baker,  G. J. O. Beran,  K. Brandhorst,  
 S. T. Brown,  E. F. C. Byrd,  A. K. Chakraborty,  C.-L. Cheng,  
 Siu Hung Chien,  D. M. Chipman,  D. L. Crittenden,  H. Dachsel,  
 R. J. Doerksen,  A. D. Dutoi,  L. Fusti-Molnar,  W. A. Goddard III,  
 A. Golubeva-Zadorozhnaya,  S. R. Gwaltney,  G. Hawkins,  A. Heyden,  
 S. Hirata,  G. Kedziora,  F. J. Keil,  C. Kelley,  Jihan Kim,  R. A. King,  
 R. Z. Khaliullin,  P. P. Korambath,  W. Kurlancheek,  A. M. Lee,  M. S. Lee,  
 S. V. Levchenko,  Ching Yeh Lin,  D. Liotard,  R. C. Lochan,  I. Lotan,  
 P. E. Maslen,  N. Nair,  D. P. O'Neill,  D. Neuhauser,  E. Neuscamman,  
 C. M. Oana,  R. Olson,  B. Peters,  R. Peverati,  P. A. Pieniazek,  
 Y. M. Rhee,  J. Ritchie,  M. A. Rohrdanz,  E. Rosta,  N. J. Russ,  
 H. F. Schaefer III,  N. E. Schultz,  N. Shenvi,  A. C. Simmonett,  A. Sodt,  
 D. Stuck,  K. S. Thanthiriwatte,  V. Vanovschi,  Tao Wang,  A. Warshel,  
 C. F. Williams,  Q. Wu,  X. Xu,  W. Zhang

 Please cite Q-Chem as follows:
 Y. Shao et al., Mol. Phys. 113, 184-215 (2015)
 DOI: 10.1080/00268976.2014.952696

 Q-Chem 5.0.2 for Intel X86 EM64T Linux

 Parts of Q-Chem use Armadillo 5.200.1 (Boston Tea Smuggler).
 http://arma.sourceforge.net/

 Q-Chem begins on Thu Jan 25 17:44:38 2018  


Host: 0

     Scratch files written to /home/jcartus/scratch/Ethene-dimer_mono2.dir//
 Using version located at /usr/local/qchem/bin/qchem

 Parallel job on  1  processors

Total Memory Limit in MB = 2000
Mega-Array Size in MB = 192

Checking the input file for inconsistencies... 	...done.
Finally everything over in PARseQInput

--------------------------------------------------------------
User input:
--------------------------------------------------------------
$rem
SCF_PRINT                     1
BASIS                         6-311++g**
SCF_SAVE_MATRICES             1
SCF_CONVERGENCE               5
SCF_FINAL_PRINT               1
METHOD                        hf
JOBTYPE                       sp
$end

$molecule
0 1
C    -0.471925    -0.471925    -1.859111
C    0.471925    0.471925    -1.859111
H    -0.872422    -0.872422    -0.936125
H    0.872422    0.872422    -0.936125
H    -0.870464    -0.870464    -2.783308
H    0.870464    0.870464    -2.783308
$end


--------------------------------------------------------------
 I,J,IOp=           1           2           2  D=   8.9175656210928133E-017 Fix sym
 I, IOp=           1           3  D=   2.2204460492503123E-016 Fix sym
 I,J,IOp=           3           4           2  D=   6.1626125719725298E-016 Fix sym
 I, IOp=           3           3  D=   8.7123326509593925E-016 Fix sym
 I,J,IOp=           5           6           2  D=   6.5531760047228501E-016 Fix sym
 I, IOp=           5           3  D=   1.6266015979464583E-017 Fix sym
 ----------------------------------------------------------------
             Standard Nuclear Orientation (Angstroms)
    I     Atom           X                Y                Z
 ----------------------------------------------------------------
    1      C       0.6674027354     0.0000000000    -0.0001513750
    2      C      -0.6674027354    -0.0000000000    -0.0001513750
    3      H       1.2337910245     0.0000000000    -0.9231373750
    4      H      -1.2337910245    -0.0000000000    -0.9231373750
    5      H       1.2310219944     0.0000000000     0.9240456250
    6      H      -1.2310219944    -0.0000000000     0.9240456250
 ----------------------------------------------------------------
 Molecular Point Group                 C2v   NOp =  4
 Largest Abelian Subgroup              C2v   NOp =  4
 Nuclear Repulsion Energy =    33.3602697208 hartrees
 There are        8 alpha and        8 beta electrons
 Requested basis set is 6-311++G(d,p)
 There are 32 shells and 72 basis functions

 Total QAlloc Memory Limit   2000 MB
 Mega-Array Size       188 MB
 MEM_STATIC part       192 MB

finished with qalloc call

                       Distance Matrix (Angstroms)
             C (  1)   C (  2)   H (  3)   H (  4)   H (  5)
   C (  2)  1.334805
   H (  3)  1.082912  2.113396
   H (  4)  2.113396  1.082912  2.467582
   H (  5)  1.082500  2.111435  1.847185  3.080160
   H (  6)  2.111435  1.082500  3.080160  1.847185  2.462044

 Job number = 2, Threshold = 1.00E-08
Integral type ranges set in mkLRange.C for JobNum: 2  <1-21|1-21>
Symmetry turned off temporarily
 Using the largest function pair in Schwarz integrals
Total number of integrals generated =           34747
Symmetry turned back on
 A cutoff of  1.0D-08 yielded    526 shell pairs
 There are      2706 function pairs (      2863 Cartesian)
 Job number = 11, Threshold = 1.00E-08
Integral type ranges set in mkLRange.C for JobNum: 11  <1-21|22-22>
Total number of integrals generated =            8970
 Smallest overlap matrix eigenvalue = 1.47E-04
 Multipole matrices computed through 2nd order

 Scale SEOQF with 1.000000e-01/1.000000e-01/1.000000e-01

 Standard Electronic Orientation quadrupole field applied
 ENuRep (before)= 33.360270
 ENucField = 0.000000
 ENuRep (after) = 33.360270
 Guess from superposition of atomic densities
 Warning:  Energy on first SCF cycle will be non-variational
 SAD guess density has 16.000000 electrons

 ==================================================
    GEN_SCFMAN: A general SCF calculation manager  
                                                   
    Authors:                                       
        -- Eric Jon Sundstrom 2008-2014            
        -- Paul Horn 2010-2015                     
        -- Yuezhi Mao 2012-                        
        -- Dmitri Zuev 2014                        
        -- Alec White 2015-                        
        -- David Stuck 2015                        
        -- Shaama M.S. 2015                        
        -- Shane Yost 2015-                         
        -- Joonho Lee 2016-                        
        -- David Small 2016-                       
        -- Daniel Levine 2016-                     
        -- Susi Lehtola 2017-                      
        -- Hugh Burton 2017-                       
 ==================================================
 Hartree-Fock
Finding J and K together
 Job number = 22, Threshold = 1.00E-08
Integral type ranges set in mkLRange.C for JobNum: 22  <1-21|1-21>
 MakeJK  time:  CPU       0.29 s  wall       0.29 s
 HF Exchange:              -11.74851810659232
 One-Electron:             -168.11905276924392
 Total Coulomb:             68.06680252578350
 Nuclear repulsion:         33.36026972085679
 A restricted SCF calculation will be
 performed using DIIS
 SCF converges when DIIS error is below 1.0e-05
 ---------------------------------------
  Cycle       Energy         DIIS error
 ---------------------------------------
Finding J and K together
 Job number = 22, Threshold = 1.00E-08
Integral type ranges set in mkLRange.C for JobNum: 22  <1-21|1-21>
 MakeJK  time:  CPU       0.51 s  wall       0.52 s
 HF Exchange:              -11.70880032383595
 One-Electron:             -170.21662144280640
 Total Coulomb:             70.53217530377277
 Nuclear repulsion:         33.36026972085679
    1     -78.4404986292      6.84e-02  
Finding J and K together
 Job number = 22, Threshold = 1.00E-08
Integral type ranges set in mkLRange.C for JobNum: 22  <1-21|1-21>
 MakeJK  time:  CPU       0.51 s  wall       0.53 s
 HF Exchange:              -11.71525124494755
 One-Electron:             -169.86311951720208
 Total Coulomb:             70.16420516590351
 Nuclear repulsion:         33.36026972085679
    2     -78.0329767420      4.90e-03  
Finding J and K together
 Job number = 22, Threshold = 1.00E-08
Integral type ranges set in mkLRange.C for JobNum: 22  <1-21|1-21>
 MakeJK  time:  CPU       0.54 s  wall       0.54 s
 HF Exchange:              -11.74469476404733
 One-Electron:             -170.07777898690816
 Total Coulomb:             70.40670670294230
 Nuclear repulsion:         33.36026972085679
    3     -78.0538958754      1.30e-03  
Finding J and K together
 Job number = 22, Threshold = 1.00E-08
Integral type ranges set in mkLRange.C for JobNum: 22  <1-21|1-21>
 MakeJK  time:  CPU       0.53 s  wall       0.56 s
 HF Exchange:              -11.73929266863352
 One-Electron:             -169.99999415181406
 Total Coulomb:             70.32335573211436
 Nuclear repulsion:         33.36026972085679
    4     -78.0554973272      4.32e-04  
Finding J and K together
 Job number = 22, Threshold = 1.00E-08
Integral type ranges set in mkLRange.C for JobNum: 22  <1-21|1-21>
 MakeJK  time:  CPU       0.51 s  wall       0.53 s
 HF Exchange:              -11.73984276714491
 One-Electron:             -170.00411112328842
 Total Coulomb:             70.32801747883491
 Nuclear repulsion:         33.36026972085679
    5     -78.0556613675      5.68e-05  
Finding J and K together
 Job number = 22, Threshold = 1.00E-08
Integral type ranges set in mkLRange.C for JobNum: 22  <1-21|1-21>
 MakeJK  time:  CPU       0.52 s  wall       0.55 s
 HF Exchange:              -11.73979940640181
 One-Electron:             -170.00381056825523
 Total Coulomb:             70.32767317987724
 Nuclear repulsion:         33.36026972085679
    6     -78.0556666907      1.26e-05  
    7     -78.0556670739      3.01e-06  Convergence criterion met
 ---------------------------------------
 SCF time:   CPU 3.52s  wall 4.00s 
 Total energy in the final basis set =      -78.0556670739
 HF Exchange:              -11.73979940640181
 One-Electron:             -170.00381056825523
 Total Coulomb:             70.32767317987724
 Nuclear repulsion:         33.36026972085679
Wall  1 = 4
Clock 1 = 3.54272294044495
 ==================================================
                  Done GEN_SCFMAN                  
 ==================================================

Symmetry turned off temporarily

 --------------------------------------------------------------
             Orbital Energies (a.u.) and Symmetries
 --------------------------------------------------------------

 Alpha MOs, Restricted
 -- Occupied --                  
-11.234 -11.232  -1.035  -0.794  -0.645  -0.589  -0.509  -0.377
  1 A1    1 B1    2 A1    2 B1    3 A1    4 A1    3 B1    1 B2                 
 -- Virtual --                   
  0.049   0.062   0.064   0.082   0.106   0.130   0.141   0.176
  5 A1    4 B1    6 A1    5 B1    1 A2    2 B2    7 A1    6 B1                 
  0.185   0.206   0.222   0.226   0.232   0.264   0.289   0.315
  8 A1    9 A1    7 B1    2 A2    8 B1   10 A1   11 A1    9 B1                 
  0.462   0.513   0.580   0.589   0.701   0.709   0.724   0.809
 10 B1   11 B1   12 A1   13 A1   14 A1   12 B1    3 B2    3 A2                 
  0.842   0.928   0.949   0.960   0.980   1.094   1.232   1.343
 15 A1   13 B1   14 B1   16 A1   15 B1   16 B1    4 B2    5 B2                 
  1.358   1.638   1.682   1.701   1.868   1.873   1.873   1.882
  4 A2   17 A1   17 B1   18 A1   19 A1   18 B1   20 A1    5 A2                 
  2.046   2.076   2.266   2.399   2.405   2.449   2.459   2.559
  6 B2    7 B2   19 B1   20 B1    6 A2   21 A1    7 A2   21 B1                 
  2.702   2.767   2.875   2.905   3.007   3.024   3.123   3.167
 22 A1   23 A1   22 B1   24 A1   25 A1   23 B1    8 B2   24 B1                 
  3.287   3.530   3.852   4.062   4.236   4.539  24.915  25.422
  8 A2   25 B1   26 A1   27 A1   26 B1   27 B1   28 A1   28 B1                 

 Beta MOs, Restricted
 -- Occupied --                  
-11.234 -11.232  -1.035  -0.794  -0.645  -0.589  -0.509  -0.377
  1 A1    1 B1    2 A1    2 B1    3 A1    4 A1    3 B1    1 B2                 
 -- Virtual --                   
  0.049   0.062   0.064   0.082   0.106   0.130   0.141   0.176
  5 A1    4 B1    6 A1    5 B1    1 A2    2 B2    7 A1    6 B1                 
  0.185   0.206   0.222   0.226   0.232   0.264   0.289   0.315
  8 A1    9 A1    7 B1    2 A2    8 B1   10 A1   11 A1    9 B1                 
  0.462   0.513   0.580   0.589   0.701   0.709   0.724   0.809
 10 B1   11 B1   12 A1   13 A1   14 A1   12 B1    3 B2    3 A2                 
  0.842   0.928   0.949   0.960   0.980   1.094   1.232   1.343
 15 A1   13 B1   14 B1   16 A1   15 B1   16 B1    4 B2    5 B2                 
  1.358   1.638   1.682   1.701   1.868   1.873   1.873   1.882
  4 A2   17 A1   17 B1   18 A1   19 A1   18 B1   20 A1    5 A2                 
  2.046   2.076   2.266   2.399   2.405   2.449   2.459   2.559
  6 B2    7 B2   19 B1   20 B1    6 A2   21 A1    7 A2   21 B1                 
  2.702   2.767   2.875   2.905   3.007   3.024   3.123   3.167
 22 A1   23 A1   22 B1   24 A1   25 A1   23 B1    8 B2   24 B1                 
  3.287   3.530   3.852   4.062   4.236   4.539  24.915  25.422
  8 A2   25 B1   26 A1   27 A1   26 B1   27 B1   28 A1   28 B1                 
 --------------------------------------------------------------

          Ground-State Mulliken Net Atomic Charges

     Atom                 Charge (a.u.)
  ----------------------------------------
      1 C                    -0.224621
      2 C                    -0.224621
      3 H                     0.112428
      4 H                     0.112428
      5 H                     0.112193
      6 H                     0.112193
  ----------------------------------------
  Sum of atomic charges =     0.000000

 -----------------------------------------------------------------
                    Cartesian Multipole Moments
 -----------------------------------------------------------------
    Charge (ESU x 10^10)
                 0.0000
    Dipole Moment (Debye)
         X      -0.0000      Y       0.0000      Z       0.0006
       Tot       0.0006
    Quadrupole Moments (Debye-Ang)
        XX     -12.2212     XY       0.0000     YY     -16.1867
        XZ      -0.0000     YZ       0.0000     ZZ     -12.3840
    Octopole Moments (Debye-Ang^2)
       XXX       0.0000    XXY       0.0000    XYY       0.0000
       YYY       0.0000    XXZ      -0.0107    XYZ       0.0000
       YYZ       0.0013    XZZ      -0.0000    YZZ       0.0000
       ZZZ       0.0073
    Hexadecapole Moments (Debye-Ang^3)
      XXXX     -68.2585   XXXY       0.0000   XXYY     -16.0511
      XYYY      -0.0000   YYYY     -21.2778   XXXZ      -0.0000
      XXYZ      -0.0000   XYYZ      -0.0000   YYYZ       0.0000
      XXZZ     -13.1053   XYZZ      -0.0000   YYZZ      -8.7803
      XZZZ      -0.0000   YZZZ       0.0000   ZZZZ     -26.8876
 -----------------------------------------------------------------
 Mayer SCF Bond Order, atomic valence on the diagonal:

            1           2           3           4           5           6
    1   3.9137737   1.9646243   0.9830978  -0.0085415   0.9835405  -0.0089475
    2   1.9646243   3.9137737  -0.0085415   0.9830978  -0.0089475   0.9835405
    3   0.9830978  -0.0085415   0.9762586   0.0035831  -0.0051283   0.0032475
    4  -0.0085415   0.9830978   0.0035831   0.9762586   0.0032475  -0.0051283
    5   0.9835405  -0.0089475  -0.0051283   0.0032475   0.9762122   0.0035000
    6  -0.0089475   0.9835405   0.0032475  -0.0051283   0.0035000   0.9762122


 JobOver = TRUE
Archival summary:
1\1\qciep03\SP\HF\BasisUnspecified\24\jcartus\ThuJan2517:44:422018ThuJan2517:44:422018\0\\#,HF,BasisUnspecified,\\0,1\C\H,1,1.0825\H,1,1.08291,2,117.088\C,1,1.33481,2,121.377,3,-180,0\H,4,1.0825,1,121.377,2,-0,0\H,4,1.08291,1,121.535,2,180,0\\HF=-78.0556671\\@

 Total job time:  3.99s(wall), 3.74s(cpu) 
 Thu Jan 25 17:44:42 2018

        *************************************************************
        *                                                           *
        *  Thank you very much for using Q-Chem.  Have a nice day.  *
        *                                                           *
        *************************************************************


*** MISSION COMPLETED -- STARFLEET OUT ***

0 sent ACK to 0 
now end server 0 ... 
