Process 0 of 1 is on qciep03 - thread support 0
initial socket setup ...start
initial socket setup ...done 
now start server 0 ... 
qciep03.tugraz.at 127.0.1
Q-Chem Developer Version! Running on 127.0.1.*
                  Welcome to Q-Chem
     A Quantum Leap Into The Future Of Chemistry


 Q-Chem 5.0, Q-Chem, Inc., Pleasanton, CA (2017)

 Yihan Shao,  Zhengting Gan,  E. Epifanovsky,  A. T. B. Gilbert,  M. Wormit,  
 J. Kussmann,  A. W. Lange,  A. Behn,  Jia Deng,  Xintian Feng,  D. Ghosh,  
 M. Goldey,  P. R. Horn,  L. D. Jacobson,  I. Kaliman,  T. Kus,  A. Landau,  
 Jie Liu,  E. I. Proynov,  R. M. Richard,  R. P. Steele,  E. J. Sundstrom,  
 H. L. Woodcock III,  P. M. Zimmerman,  D. Zuev,  B. Albrecht,  E. Alguire,  
 S. A. Baeppler,  D. Barton,  Z. Benda,  Y. A. Bernard,  E. J. Berquist,  
 K. B. Bravaya,  H. Burton,  D. Casanova,  Chun-Min Chang,  Yunqing Chen,  
 A. Chien,  K. D. Closser,  M. P. Coons,  S. Dasgupta,  A. L. Dempwolff,  
 M. Diedenhofen,  Hainam Do,  R. G. Edgar,  Po-Tung Fang,  S. Fatehi,  
 Qingguo Feng,  J. Fosso-Tande,  Qinghui Ge,  A. Ghysels,  G. Gidofalvi,  
 J. Gomes,  J. Gonthier,  A. Gunina,  M. W. D. Hanson-Heine,  
 P. H. P. Harbach,  A. W. Hauser,  J. E. Herr,  E. G. Hohenstein,  
 Z. C. Holden,  Kerwin Hui,  T.-C. Jagau,  Hyunjun Ji,  B. Kaduk,  
 K. Khistyaev,  Jaehoon Kim,  P. Klunzinger,  K. Koh,  D. Kosenkov,  
 L. Koulias,  T. Kowalczyk,  C. M. Krauter,  A. Kunitsa,  Ka Un Lao,  
 A. Laurent,  K. V. Lawler,  Joonho Lee,  D. Lefrancois,  S. Lehtola,  
 D. S. Levine,  Yi-Pei Li,  You-Sheng Lin,  Fenglai Liu,  E. Livshits,  
 A. Luenser,  P. Manohar,  E. Mansoor,  S. F. Manzer,  Shan-Ping Mao,  
 Yuezhi Mao,  N. Mardirossian,  A. V. Marenich,  T. Markovich,  
 L. A. Martinez-Martinez,  S. A. Maurer,  N. J. Mayhall,  S. C. McKenzie,  
 J.-M. Mewes,  A. F. Morrison,  J. W. Mullinax,  K. Nanda,  
 T. S. Nguyen-Beck,  R. Olivares-Amaya,  J. A. Parkhill,  T. M. Perrine,  
 F. Plasser,  S. Prager,  A. Prociuk,  E. Ramos,  D. R. Rehn,  F. Rob,  
 M. Schneider,  N. Sergueev,  S. M. Sharada,  S. Sharma,  D. W. Small,  
 T. Stauch,  T. Stein,  Yu-Chuan Su,  A. J. W. Thom,  A. Tkatchenko,  
 T. Tsuchimochi,  L. Vogt,  O. Vydrov,  M. A. Watson,  J. Wenzel,  
 M. de Wergifosse,  T. A. Wesolowski,  A. White,  J. Witte,  A. Yamada,  
 Jun Yang,  K. Yao,  S. Yeganeh,  S. R. Yost,  Zhi-Qiang You,  A. Zech,  
 Igor Ying Zhang,  Xing Zhang,  Yan Zhao,  Ying Zhu,  B. R. Brooks,  
 G. K. L. Chan,  C. J. Cramer,  M. S. Gordon,  W. J. Hehre,  A. Klamt,  
 M. W. Schmidt,  C. D. Sherrill,  D. G. Truhlar,  A. Aspuru-Guzik,  R. Baer,  
 A. T. Bell,  N. A. Besley,  Jeng-Da Chai,  R. A. DiStasio Jr.,  A. Dreuw,  
 B. D. Dunietz,  T. R. Furlani,  Chao-Ping Hsu,  Yousung Jung,  Jing Kong,  
 D. S. Lambrecht,  WanZhen Liang,  C. Ochsenfeld,  V. A. Rassolov,  
 L. V. Slipchenko,  J. E. Subotnik,  T. Van Voorhis,  J. M. Herbert,  
 A. I. Krylov,  P. M. W. Gill,  M. Head-Gordon

 Contributors to earlier versions of Q-Chem not listed above: 
 R. D. Adamson,  B. Austin,  J. Baker,  G. J. O. Beran,  K. Brandhorst,  
 S. T. Brown,  E. F. C. Byrd,  A. K. Chakraborty,  C.-L. Cheng,  
 Siu Hung Chien,  D. M. Chipman,  D. L. Crittenden,  H. Dachsel,  
 R. J. Doerksen,  A. D. Dutoi,  L. Fusti-Molnar,  W. A. Goddard III,  
 A. Golubeva-Zadorozhnaya,  S. R. Gwaltney,  G. Hawkins,  A. Heyden,  
 S. Hirata,  G. Kedziora,  F. J. Keil,  C. Kelley,  Jihan Kim,  R. A. King,  
 R. Z. Khaliullin,  P. P. Korambath,  W. Kurlancheek,  A. M. Lee,  M. S. Lee,  
 S. V. Levchenko,  Ching Yeh Lin,  D. Liotard,  R. C. Lochan,  I. Lotan,  
 P. E. Maslen,  N. Nair,  D. P. O'Neill,  D. Neuhauser,  E. Neuscamman,  
 C. M. Oana,  R. Olson,  B. Peters,  R. Peverati,  P. A. Pieniazek,  
 Y. M. Rhee,  J. Ritchie,  M. A. Rohrdanz,  E. Rosta,  N. J. Russ,  
 H. F. Schaefer III,  N. E. Schultz,  N. Shenvi,  A. C. Simmonett,  A. Sodt,  
 D. Stuck,  K. S. Thanthiriwatte,  V. Vanovschi,  Tao Wang,  A. Warshel,  
 C. F. Williams,  Q. Wu,  X. Xu,  W. Zhang

 Please cite Q-Chem as follows:
 Y. Shao et al., Mol. Phys. 113, 184-215 (2015)
 DOI: 10.1080/00268976.2014.952696

 Q-Chem 5.0.2 for Intel X86 EM64T Linux

 Parts of Q-Chem use Armadillo 5.200.1 (Boston Tea Smuggler).
 http://arma.sourceforge.net/

 Q-Chem begins on Thu Feb  1 11:59:27 2018  


Host: 0

     Scratch files written to /home/jcartus/scratch/14_bromomethane-formaldehyde_mono2.dir//
 Using version located at /usr/local/qchem/bin/qchem

 Parallel job on  1  processors

Total Memory Limit in MB = 2000
Mega-Array Size in MB = 192

Checking the input file for inconsistencies... 	...done.
Finally everything over in PARseQInput

--------------------------------------------------------------
User input:
--------------------------------------------------------------
$rem
SCF_PRINT                     1
BASIS                         6-311++g**
SCF_SAVE_MATRICES             1
SCF_CONVERGENCE               5
SCF_FINAL_PRINT               1
METHOD                        hf
JOBTYPE                       sp
$end

$molecule
0 1
O    4.855012535    0.847915867    1.349033039
C    5.32441412    0.241999249    0.411201439
H    6.411534668    0.146524254    0.26874794
H    4.686070972    -0.241736004    -0.342833789
$end


--------------------------------------------------------------
 I, IOp=           1           2  D=   4.5781834272867563E-007 Fix sym
 Atom   1: (  0.6779636313,  0.0000999918, -0.0000001211)
         ->(  0.6779636313,  0.0000999918,  0.0000000000)
 I, IOp=           2           2  D=   1.8875427576470539E-006 Fix sym
 Atom   2: ( -0.5332344828, -0.0000856086,  0.0000004994)
         ->( -0.5332344828, -0.0000856086,  0.0000000000)
 I, IOp=           3           2  D=   3.8312272309258135E-006 Fix sym
 Atom   3: ( -1.1127573795,  0.9355386601, -0.0000010137)
         ->( -1.1127573795,  0.9355386601,  0.0000000000)
 I, IOp=           4           2  D=   3.8314825746888158E-006 Fix sym
 Atom   4: ( -1.1115447738, -0.9358249430, -0.0000010138)
         ->( -1.1115447738, -0.9358249430,  0.0000000000)
 ----------------------------------------------------------------
             Standard Nuclear Orientation (Angstroms)
    I     Atom           X                Y                Z
 ----------------------------------------------------------------
    1      O       0.6779636313     0.0000999918     0.0000000000
    2      C      -0.5332344828    -0.0000856086     0.0000000000
    3      H      -1.1127573795     0.9355386601     0.0000000000
    4      H      -1.1115447738    -0.9358249430     0.0000000000
 ----------------------------------------------------------------
 Molecular Point Group                 Cs    NOp =  2
 Largest Abelian Subgroup              Cs    NOp =  2
 Nuclear Repulsion Energy =    31.2171711339 hartrees
 There are        8 alpha and        8 beta electrons
 Requested basis set is 6-311++G(d,p)
 There are 22 shells and 58 basis functions

 Total QAlloc Memory Limit   2000 MB
 Mega-Array Size       188 MB
 MEM_STATIC part       192 MB

finished with qalloc call

                       Distance Matrix (Angstroms)
             O (  1)   C (  2)   H (  3)
   C (  2)  1.211198
   H (  3)  2.020328  1.100563
   H (  4)  2.019479  1.100023  1.871364

 Job number = 2, Threshold = 1.00E-08
Integral type ranges set in mkLRange.C for JobNum: 2  <1-21|1-21>
Symmetry turned off temporarily
 Using the largest function pair in Schwarz integrals
Total number of integrals generated =           28398
Symmetry turned back on
 A cutoff of  1.0D-08 yielded    253 shell pairs
 There are      1785 function pairs (      1914 Cartesian)
 Job number = 11, Threshold = 1.00E-08
Integral type ranges set in mkLRange.C for JobNum: 11  <1-21|22-22>
Total number of integrals generated =            7656
 Smallest overlap matrix eigenvalue = 2.53E-03
 Multipole matrices computed through 2nd order

 Scale SEOQF with 1.000000e-01/1.000000e-01/1.000000e-01

 Standard Electronic Orientation quadrupole field applied
 Nucleus-field energy     =     0.0000000004 hartrees
 ENuRep (before)= 31.2171711339
 ENucField = 0.0000000004
 ENuRep (after) = 31.2171711343
 Guess from superposition of atomic densities
 Warning:  Energy on first SCF cycle will be non-variational
 SAD guess density has 16.000000 electrons

 ==================================================
    GEN_SCFMAN: A general SCF calculation manager  
                                                   
    Authors:                                       
        -- Eric Jon Sundstrom 2008-2014            
        -- Paul Horn 2010-2015                     
        -- Yuezhi Mao 2012-                        
        -- Dmitri Zuev 2014                        
        -- Alec White 2015-                        
        -- David Stuck 2015                        
        -- Shaama M.S. 2015                        
        -- Shane Yost 2015-                         
        -- Joonho Lee 2016-                        
        -- David Small 2016-                       
        -- Daniel Levine 2016-                     
        -- Susi Lehtola 2017-                      
        -- Hugh Burton 2017-                       
 ==================================================
 Hartree-Fock
Finding J and K together
 Job number = 22, Threshold = 1.00E-08
Integral type ranges set in mkLRange.C for JobNum: 22  <1-21|1-21>
 MakeJK  time:  CPU       0.28 s  wall       0.28 s
 HF Exchange:              -13.89883000060885
 One-Electron:             -216.01612973846164
 Total Coulomb:             84.61032639638024
 Nuclear repulsion:         31.21717113427071
 A restricted SCF calculation will be
 performed using DIIS
 SCF converges when DIIS error is below 1.0e-05
 ---------------------------------------
  Cycle       Energy         DIIS error
 ---------------------------------------
Finding J and K together
 Job number = 22, Threshold = 1.00E-08
Integral type ranges set in mkLRange.C for JobNum: 22  <1-21|1-21>
 MakeJK  time:  CPU       0.43 s  wall       0.43 s
 HF Exchange:              -14.14648916758075
 One-Electron:             -217.56003960645788
 Total Coulomb:             86.66010108523281
 Nuclear repulsion:         31.21717113427071
    1    -114.0874622084      8.12e-02  
Finding J and K together
 Job number = 22, Threshold = 1.00E-08
Integral type ranges set in mkLRange.C for JobNum: 22  <1-21|1-21>
 MakeJK  time:  CPU       0.45 s  wall       0.45 s
 HF Exchange:              -13.96010037059708
 One-Electron:             -216.43539400231271
 Total Coulomb:             85.31595698929880
 Nuclear repulsion:         31.21717113427071
    2    -113.8292565545      1.33e-02  
Finding J and K together
 Job number = 22, Threshold = 1.00E-08
Integral type ranges set in mkLRange.C for JobNum: 22  <1-21|1-21>
 MakeJK  time:  CPU       0.39 s  wall       0.41 s
 HF Exchange:              -14.08176708452798
 One-Electron:             -217.23889357465657
 Total Coulomb:             86.20340841594182
 Nuclear repulsion:         31.21717113427071
    3    -113.8623662493      1.14e-02  
Finding J and K together
 Job number = 22, Threshold = 1.00E-08
Integral type ranges set in mkLRange.C for JobNum: 22  <1-21|1-21>
 MakeJK  time:  CPU       0.42 s  wall       0.42 s
 HF Exchange:              -14.07316033854975
 One-Electron:             -217.13511334813543
 Total Coulomb:             86.09026099059248
 Nuclear repulsion:         31.21717113427071
    4    -113.9000811090      9.93e-04  
Finding J and K together
 Job number = 22, Threshold = 1.00E-08
Integral type ranges set in mkLRange.C for JobNum: 22  <1-21|1-21>
 MakeJK  time:  CPU       0.41 s  wall       0.47 s
 HF Exchange:              -14.07732791950578
 One-Electron:             -217.16938423787172
 Total Coulomb:             86.12855118633932
 Nuclear repulsion:         31.21717113427071
    5    -113.9008415618      4.00e-04  
Finding J and K together
 Job number = 22, Threshold = 1.00E-08
Integral type ranges set in mkLRange.C for JobNum: 22  <1-21|1-21>
 MakeJK  time:  CPU       0.44 s  wall       0.44 s
 HF Exchange:              -14.07640963756141
 One-Electron:             -217.16234395203861
 Total Coulomb:             86.12055113593509
 Nuclear repulsion:         31.21717113427071
    6    -113.9009898368      1.68e-04  
Finding J and K together
 Job number = 22, Threshold = 1.00E-08
Integral type ranges set in mkLRange.C for JobNum: 22  <1-21|1-21>
 MakeJK  time:  CPU       0.44 s  wall       0.44 s
 HF Exchange:              -14.07660644344930
 One-Electron:             -217.16440700291170
 Total Coulomb:             86.12280750285177
 Nuclear repulsion:         31.21717113427071
    7    -113.9010313194      6.19e-05  
    8    -113.9010348092      9.14e-06  Convergence criterion met
 ---------------------------------------
 SCF time:   CPU 3.32s  wall 4.00s 
 Total energy in the final basis set =     -113.9010348092
 HF Exchange:              -14.07660644344930
 One-Electron:             -217.16440700291170
 Total Coulomb:             86.12280750285177
 Nuclear repulsion:         31.21717113427071
Wall  1 = 4
Clock 1 = 3.33257198333740
 ==================================================
                  Done GEN_SCFMAN                  
 ==================================================

Symmetry turned off temporarily

 --------------------------------------------------------------
             Orbital Energies (a.u.) and Symmetries
 --------------------------------------------------------------

 Alpha MOs, Restricted
 -- Occupied --                  
-20.580 -11.346  -1.407  -0.874  -0.696  -0.653  -0.536  -0.445
  1 A'    2 A'    3 A'    4 A'    5 A'    6 A'    1 A"    7 A'                 
 -- Virtual --                   
  0.041   0.064   0.073   0.099   0.157   0.160   0.163   0.246
  8 A'    9 A'    2 A"   10 A'    3 A"   11 A'   12 A'   13 A'                 
  0.279   0.299   0.322   0.388   0.389   0.513   0.630   0.637
 14 A'   15 A'    4 A"   16 A'   17 A'   18 A'   19 A'   20 A'                 
  0.699   0.830   0.861   1.028   1.239   1.264   1.321   1.392
  5 A"   21 A'   22 A'   23 A'    6 A"   24 A'    7 A"   25 A'                 
  1.513   1.658   1.679   1.697   1.888   2.011   2.019   2.120
  8 A"   26 A'   27 A'   28 A'   29 A'   30 A'    9 A"   10 A"                 
  2.483   2.690   2.768   2.783   2.941   3.025   3.251   3.279
 31 A'   32 A'   33 A'   34 A'   35 A'   11 A"   12 A"   36 A'                 
  3.722   3.805   3.869   4.097   4.280   5.542   5.644   6.207
 13 A"   37 A'   38 A'   39 A'   40 A'   14 A"   41 A'   42 A'                 
 25.031  51.616
 43 A'   44 A'                                                                 

 Beta MOs, Restricted
 -- Occupied --                  
-20.580 -11.346  -1.407  -0.874  -0.696  -0.653  -0.536  -0.445
  1 A'    2 A'    3 A'    4 A'    5 A'    6 A'    1 A"    7 A'                 
 -- Virtual --                   
  0.041   0.064   0.073   0.099   0.157   0.160   0.163   0.246
  8 A'    9 A'    2 A"   10 A'    3 A"   11 A'   12 A'   13 A'                 
  0.279   0.299   0.322   0.388   0.389   0.513   0.630   0.637
 14 A'   15 A'    4 A"   16 A'   17 A'   18 A'   19 A'   20 A'                 
  0.699   0.830   0.861   1.028   1.239   1.264   1.321   1.392
  5 A"   21 A'   22 A'   23 A'    6 A"   24 A'    7 A"   25 A'                 
  1.513   1.658   1.679   1.697   1.888   2.011   2.019   2.120
  8 A"   26 A'   27 A'   28 A'   29 A'   30 A'    9 A"   10 A"                 
  2.483   2.690   2.768   2.783   2.941   3.025   3.251   3.279
 31 A'   32 A'   33 A'   34 A'   35 A'   11 A"   12 A"   36 A'                 
  3.722   3.805   3.869   4.097   4.280   5.542   5.644   6.207
 13 A"   37 A'   38 A'   39 A'   40 A'   14 A"   41 A'   42 A'                 
 25.031  51.616
 43 A'   44 A'                                                                 
 --------------------------------------------------------------

          Ground-State Mulliken Net Atomic Charges

     Atom                 Charge (a.u.)
  ----------------------------------------
      1 O                    -0.307411
      2 C                     0.118838
      3 H                     0.094260
      4 H                     0.094313
  ----------------------------------------
  Sum of atomic charges =     0.000000

 -----------------------------------------------------------------
                    Cartesian Multipole Moments
 -----------------------------------------------------------------
    Charge (ESU x 10^10)
                 0.0000
    Dipole Moment (Debye)
         X      -2.9762      Y      -0.0008      Z      -0.0000
       Tot       2.9762
    Quadrupole Moments (Debye-Ang)
        XX     -12.2178     XY      -0.0005     YY     -11.4716
        XZ       0.0000     YZ      -0.0000     ZZ     -11.7436
    Octopole Moments (Debye-Ang^2)
       XXX      -0.4225    XXY       0.0008    XYY      -0.8996
       YYY      -0.0023    XXZ      -0.0000    XYZ      -0.0000
       YYZ      -0.0000    XZZ       0.3770    YZZ      -0.0006
       ZZZ      -0.0000
    Hexadecapole Moments (Debye-Ang^3)
      XXXX     -45.4950   XXXY      -0.0014   XXYY     -10.0125
      XYYY       0.0009   YYYY     -17.4999   XXXZ       0.0000
      XXYZ       0.0000   XYYZ       0.0000   YYYZ       0.0000
      XXZZ      -9.3605   XYZZ       0.0007   YYZZ      -5.0067
      XZZZ       0.0000   YZZZ      -0.0000   ZZZZ     -10.4534
 -----------------------------------------------------------------
 Mayer SCF Bond Order, atomic valence on the diagonal:

            1           2           3           4
    1   1.9254834   1.9471008  -0.0107455  -0.0108719
    2   1.9471008   3.8535310   0.9531959   0.9532343
    3  -0.0107455   0.9531959   0.9291945  -0.0132559
    4  -0.0108719   0.9532343  -0.0132559   0.9291064


 JobOver = TRUE
Archival summary:
1\1\qciep03\SP\HF\BasisUnspecified\112\jcartus\ThuFeb111:59:312018ThuFeb111:59:312018\0\\#,HF,BasisUnspecified,\\0,1\C\H,1,1.10002\H,1,1.10056,2,116.509\O,1,1.2112,2,121.726,3,-180,0\\HF=-113.901035\\@

 Total job time:  3.61s(wall), 3.47s(cpu) 
 Thu Feb  1 11:59:31 2018

        *************************************************************
        *                                                           *
        *  Thank you very much for using Q-Chem.  Have a nice day.  *
        *                                                           *
        *************************************************************


*** MISSION COMPLETED -- STARFLEET OUT ***

0 sent ACK to 0 
now end server 0 ... 
