Process 0 of 1 is on qciep03 - thread support 0
initial socket setup ...start
initial socket setup ...done 
now start server 0 ... 
qciep03.tugraz.at 127.0.1
Q-Chem Developer Version! Running on 127.0.1.*
                  Welcome to Q-Chem
     A Quantum Leap Into The Future Of Chemistry


 Q-Chem 5.0, Q-Chem, Inc., Pleasanton, CA (2017)

 Yihan Shao,  Zhengting Gan,  E. Epifanovsky,  A. T. B. Gilbert,  M. Wormit,  
 J. Kussmann,  A. W. Lange,  A. Behn,  Jia Deng,  Xintian Feng,  D. Ghosh,  
 M. Goldey,  P. R. Horn,  L. D. Jacobson,  I. Kaliman,  T. Kus,  A. Landau,  
 Jie Liu,  E. I. Proynov,  R. M. Richard,  R. P. Steele,  E. J. Sundstrom,  
 H. L. Woodcock III,  P. M. Zimmerman,  D. Zuev,  B. Albrecht,  E. Alguire,  
 S. A. Baeppler,  D. Barton,  Z. Benda,  Y. A. Bernard,  E. J. Berquist,  
 K. B. Bravaya,  H. Burton,  D. Casanova,  Chun-Min Chang,  Yunqing Chen,  
 A. Chien,  K. D. Closser,  M. P. Coons,  S. Dasgupta,  A. L. Dempwolff,  
 M. Diedenhofen,  Hainam Do,  R. G. Edgar,  Po-Tung Fang,  S. Fatehi,  
 Qingguo Feng,  J. Fosso-Tande,  Qinghui Ge,  A. Ghysels,  G. Gidofalvi,  
 J. Gomes,  J. Gonthier,  A. Gunina,  M. W. D. Hanson-Heine,  
 P. H. P. Harbach,  A. W. Hauser,  J. E. Herr,  E. G. Hohenstein,  
 Z. C. Holden,  Kerwin Hui,  T.-C. Jagau,  Hyunjun Ji,  B. Kaduk,  
 K. Khistyaev,  Jaehoon Kim,  P. Klunzinger,  K. Koh,  D. Kosenkov,  
 L. Koulias,  T. Kowalczyk,  C. M. Krauter,  A. Kunitsa,  Ka Un Lao,  
 A. Laurent,  K. V. Lawler,  Joonho Lee,  D. Lefrancois,  S. Lehtola,  
 D. S. Levine,  Yi-Pei Li,  You-Sheng Lin,  Fenglai Liu,  E. Livshits,  
 A. Luenser,  P. Manohar,  E. Mansoor,  S. F. Manzer,  Shan-Ping Mao,  
 Yuezhi Mao,  N. Mardirossian,  A. V. Marenich,  T. Markovich,  
 L. A. Martinez-Martinez,  S. A. Maurer,  N. J. Mayhall,  S. C. McKenzie,  
 J.-M. Mewes,  A. F. Morrison,  J. W. Mullinax,  K. Nanda,  
 T. S. Nguyen-Beck,  R. Olivares-Amaya,  J. A. Parkhill,  T. M. Perrine,  
 F. Plasser,  S. Prager,  A. Prociuk,  E. Ramos,  D. R. Rehn,  F. Rob,  
 M. Schneider,  N. Sergueev,  S. M. Sharada,  S. Sharma,  D. W. Small,  
 T. Stauch,  T. Stein,  Yu-Chuan Su,  A. J. W. Thom,  A. Tkatchenko,  
 T. Tsuchimochi,  L. Vogt,  O. Vydrov,  M. A. Watson,  J. Wenzel,  
 M. de Wergifosse,  T. A. Wesolowski,  A. White,  J. Witte,  A. Yamada,  
 Jun Yang,  K. Yao,  S. Yeganeh,  S. R. Yost,  Zhi-Qiang You,  A. Zech,  
 Igor Ying Zhang,  Xing Zhang,  Yan Zhao,  Ying Zhu,  B. R. Brooks,  
 G. K. L. Chan,  C. J. Cramer,  M. S. Gordon,  W. J. Hehre,  A. Klamt,  
 M. W. Schmidt,  C. D. Sherrill,  D. G. Truhlar,  A. Aspuru-Guzik,  R. Baer,  
 A. T. Bell,  N. A. Besley,  Jeng-Da Chai,  R. A. DiStasio Jr.,  A. Dreuw,  
 B. D. Dunietz,  T. R. Furlani,  Chao-Ping Hsu,  Yousung Jung,  Jing Kong,  
 D. S. Lambrecht,  WanZhen Liang,  C. Ochsenfeld,  V. A. Rassolov,  
 L. V. Slipchenko,  J. E. Subotnik,  T. Van Voorhis,  J. M. Herbert,  
 A. I. Krylov,  P. M. W. Gill,  M. Head-Gordon

 Contributors to earlier versions of Q-Chem not listed above: 
 R. D. Adamson,  B. Austin,  J. Baker,  G. J. O. Beran,  K. Brandhorst,  
 S. T. Brown,  E. F. C. Byrd,  A. K. Chakraborty,  C.-L. Cheng,  
 Siu Hung Chien,  D. M. Chipman,  D. L. Crittenden,  H. Dachsel,  
 R. J. Doerksen,  A. D. Dutoi,  L. Fusti-Molnar,  W. A. Goddard III,  
 A. Golubeva-Zadorozhnaya,  S. R. Gwaltney,  G. Hawkins,  A. Heyden,  
 S. Hirata,  G. Kedziora,  F. J. Keil,  C. Kelley,  Jihan Kim,  R. A. King,  
 R. Z. Khaliullin,  P. P. Korambath,  W. Kurlancheek,  A. M. Lee,  M. S. Lee,  
 S. V. Levchenko,  Ching Yeh Lin,  D. Liotard,  R. C. Lochan,  I. Lotan,  
 P. E. Maslen,  N. Nair,  D. P. O'Neill,  D. Neuhauser,  E. Neuscamman,  
 C. M. Oana,  R. Olson,  B. Peters,  R. Peverati,  P. A. Pieniazek,  
 Y. M. Rhee,  J. Ritchie,  M. A. Rohrdanz,  E. Rosta,  N. J. Russ,  
 H. F. Schaefer III,  N. E. Schultz,  N. Shenvi,  A. C. Simmonett,  A. Sodt,  
 D. Stuck,  K. S. Thanthiriwatte,  V. Vanovschi,  Tao Wang,  A. Warshel,  
 C. F. Williams,  Q. Wu,  X. Xu,  W. Zhang

 Please cite Q-Chem as follows:
 Y. Shao et al., Mol. Phys. 113, 184-215 (2015)
 DOI: 10.1080/00268976.2014.952696

 Q-Chem 5.0.2 for Intel X86 EM64T Linux

 Parts of Q-Chem use Armadillo 5.200.1 (Boston Tea Smuggler).
 http://arma.sourceforge.net/

 Q-Chem begins on Sat Apr 21 18:04:21 2018  


Host: 0

     Scratch files written to /home/jcartus/scratch/qchem15438//
 Using version located at /usr/local/qchem/bin/qchem

 Parallel job on  1  processors
Symmetry disabled for AIMD jobs.

Total Memory Limit in MB = 2000
Mega-Array Size in MB = 192

Checking the input file for inconsistencies... 	...done.
Finally everything over in PARseQInput

--------------------------------------------------------------
User input:
--------------------------------------------------------------
$molecule
   0  1
   C       -2.83034        2.46352        0.00000
   C       -1.31827        2.46353       -0.00000
   H       -3.82434        2.46352        0.00000
   H       -0.32427        2.46353       -0.00000
$end

$rem
   JOBTYPE              aimd
   AIMD_METHOD          bomd
   METHOD               hf
   BASIS                6-31g*
   TIME_STEP            20        (20 a.u. = 0.48 fs) 
   AIMD_STEPS           200
   AIMD_INIT_VELOC      thermal
   AIMD_TEMP            298
$end 
--------------------------------------------------------------
 ----------------------------------------------------------------
             Standard Nuclear Orientation (Angstroms)
    I     Atom           X                Y                Z
 ----------------------------------------------------------------
    1      C      -2.8303400000     2.4635200000     0.0000000000
    2      C      -1.3182700000     2.4635300000    -0.0000000000
    3      H      -3.8243400000     2.4635200000     0.0000000000
    4      H      -0.3242700000     2.4635300000    -0.0000000000
 ----------------------------------------------------------------
 Nuclear Repulsion Energy =    21.6724201635 hartrees
 There are        7 alpha and        7 beta electrons
 Requested basis set is 6-31G(d)
 There are 12 shells and 34 basis functions

 Total QAlloc Memory Limit   2000 MB
 Mega-Array Size       188 MB
 MEM_STATIC part       192 MB

finished with qalloc call

                       Distance Matrix (Angstroms)
             C (  1)   C (  2)   H (  3)
   C (  2)  1.512070
   H (  3)  0.994000  2.506070
   H (  4)  2.506070  0.994000  3.500070

 Job number = 2, Threshold = 1.00E-11
Integral type ranges set in mkLRange.C for JobNum: 2  <1-21|1-21>
Symmetry turned off temporarily
 Using the largest function pair in Schwarz integrals
Total number of integrals generated =           11893
Symmetry turned back on
 A cutoff of  1.0D-11 yielded     78 shell pairs
 There are       649 function pairs
 Job number = 11, Threshold = 1.00E-11
Integral type ranges set in mkLRange.C for JobNum: 11  <1-21|22-22>
Total number of integrals generated =            2596
 Smallest overlap matrix eigenvalue = 3.98E-03
 Multipole matrices computed through 2nd order

 Scale SEOQF with 1.000000e-01/1.000000e-01/1.000000e+00

 Standard Electronic Orientation quadrupole field applied
 Nucleus-field energy     =     0.0000000087 hartrees
 ENuRep (before)= 21.6724201635
 ENucField = 0.0000000087
 ENuRep (after) = 21.6724201722
 Guess from superposition of atomic densities
 Warning:  Energy on first SCF cycle will be non-variational
 SAD guess density has 14.000000 electrons

 ==================================================
    GEN_SCFMAN: A general SCF calculation manager  
                                                   
    Authors:                                       
        -- Eric Jon Sundstrom 2008-2014            
        -- Paul Horn 2010-2015                     
        -- Yuezhi Mao 2012-                        
        -- Dmitri Zuev 2014                        
        -- Alec White 2015-                        
        -- David Stuck 2015                        
        -- Shaama M.S. 2015                        
        -- Shane Yost 2015-                         
        -- Joonho Lee 2016-                        
        -- David Small 2016-                       
        -- Daniel Levine 2016-                     
        -- Susi Lehtola 2017-                      
        -- Hugh Burton 2017-                       
 ==================================================
 Hartree-Fock
Finding J and K together
 Job number = 22, Threshold = 1.00E-11
Integral type ranges set in mkLRange.C for JobNum: 22  <1-21|1-21>
 MakeJK  time:  CPU       0.08 s  wall       0.08 s
 A restricted SCF calculation will be
 performed using DIIS
 SCF converges when DIIS error is below 1.0e-08
 ---------------------------------------
  Cycle       Energy         DIIS error
 ---------------------------------------
Finding J and K together
 Job number = 22, Threshold = 1.00E-11
Integral type ranges set in mkLRange.C for JobNum: 22  <1-21|1-21>
 MakeJK  time:  CPU       0.09 s  wall       0.09 s
    1     -76.6873026408      9.33e-02  
Finding J and K together
 Job number = 22, Threshold = 1.00E-11
Integral type ranges set in mkLRange.C for JobNum: 22  <1-21|1-21>
 MakeJK  time:  CPU       0.09 s  wall       0.09 s
    2     -76.6372251790      9.58e-03  
Finding J and K together
 Job number = 22, Threshold = 1.00E-11
Integral type ranges set in mkLRange.C for JobNum: 22  <1-21|1-21>
 MakeJK  time:  CPU       0.09 s  wall       0.09 s
    3     -76.6615743349      2.57e-03  
Finding J and K together
 Job number = 22, Threshold = 1.00E-11
Integral type ranges set in mkLRange.C for JobNum: 22  <1-21|1-21>
 MakeJK  time:  CPU       0.09 s  wall       0.09 s
    4     -76.6634260671      3.50e-04  
Finding J and K together
 Job number = 22, Threshold = 1.00E-11
Integral type ranges set in mkLRange.C for JobNum: 22  <1-21|1-21>
 MakeJK  time:  CPU       0.09 s  wall       0.09 s
    5     -76.6634603249      4.69e-05  
Finding J and K together
 Job number = 22, Threshold = 1.00E-11
Integral type ranges set in mkLRange.C for JobNum: 22  <1-21|1-21>
 MakeJK  time:  CPU       0.09 s  wall       0.09 s
    6     -76.6634609518      7.02e-06  
Finding J and K together
 Job number = 22, Threshold = 1.00E-11
Integral type ranges set in mkLRange.C for JobNum: 22  <1-21|1-21>
 MakeJK  time:  CPU       0.09 s  wall       0.09 s
    7     -76.6634609650      1.65e-06  
Finding J and K together
 Job number = 22, Threshold = 1.00E-11
Integral type ranges set in mkLRange.C for JobNum: 22  <1-21|1-21>
 MakeJK  time:  CPU       0.09 s  wall       0.09 s
    8     -76.6634609657      1.95e-07  
Finding J and K together
 Job number = 22, Threshold = 1.00E-11
Integral type ranges set in mkLRange.C for JobNum: 22  <1-21|1-21>
 MakeJK  time:  CPU       0.09 s  wall       0.09 s
    9     -76.6634609657      1.65e-08  
   10     -76.6634609657      2.16e-09  Convergence criterion met
 ---------------------------------------
 SCF time:   CPU 0.89s  wall 1.00s 
 Total energy in the final basis set =      -76.6634609657
Wall  1 = 1
Clock 1 = 0.8899800181
 ==================================================
                  Done GEN_SCFMAN                  
 ==================================================

Symmetry turned off temporarily

 --------------------------------------------------------------

                    Orbital Energies (a.u.)
 --------------------------------------------------------------

 Alpha MOs
 -- Occupied --
-11.315 -11.314  -0.955  -0.828  -0.665  -0.345  -0.345
 -- Virtual --
  0.127   0.127   0.218   0.305   0.459   0.686   0.785   0.785
  0.848   0.848   0.935   1.094   1.218   1.238   1.668   1.668
  1.707   1.894   1.894   2.097   2.097   2.473   2.473   2.536
  3.249   4.287   4.814
 --------------------------------------------------------------

          Ground-State Mulliken Net Atomic Charges

     Atom                 Charge (a.u.)
  ----------------------------------------
      1 C                    -0.286802
      2 C                    -0.286803
      3 H                     0.286802
      4 H                     0.286802
  ----------------------------------------
  Sum of atomic charges =     0.000000

 -----------------------------------------------------------------
                    Cartesian Multipole Moments
 -----------------------------------------------------------------
    Charge (ESU x 10^10)
                -0.0000
    Dipole Moment (Debye)
         X      -0.0000      Y      -0.0000      Z       0.0000
       Tot       0.0000
    Quadrupole Moments (Debye-Ang)
        XX      -5.7495     XY       0.0000     YY     -14.3712
        XZ      -0.0000     YZ       0.0000     ZZ     -14.3712
    Octopole Moments (Debye-Ang^2)
       XXX      35.7784    XXY     -14.1640    XYY      29.8103
       YYY    -106.2112    XXZ       0.0000    XYZ      -0.0000
       YYZ       0.0000    XZZ      29.8102    YZZ     -35.4037
       ZZZ       0.0000
    Hexadecapole Moments (Debye-Ang^3)
      XXXX    -192.7039   XXXY      88.1411   XXYY    -111.3492
      XYYY     220.3147   YYYY    -539.5978   XXXZ      -0.0000
      XXYZ       0.0000   XYYZ      -0.0000   YYYZ       0.0000
      XXZZ     -76.4556   XYZZ      73.4381   YYZZ     -92.6479
      XZZZ      -0.0000   YZZZ       0.0000   ZZZZ     -16.2898
 -----------------------------------------------------------------
drvman_main.C: 73: calling DrvMan  Calculating analytic gradient of the SCF energy
drvman.C : 218: Calculating analytic gradient of the SCF energy
drvman.C: 244: calling SCF_Grad for normal SCF gradient
 Job number = 111, Threshold = 1.00E-11
Integral type ranges set in mkLRange.C for JobNum: 11  <1-21|22-22>
Finding J and K together
 ML is being used
 Job number = 122, Threshold = 1.00E-11
Integral type ranges set in mkLRange.C for JobNum: 22  <1-21|1-21>
Total number of integrals generated =          216432
 MakeJK  time:  CPU       0.39 s  wall       0.38 s
 Gradient of SCF Energy
            1           2           3           4
    1  -0.4274736   0.4274736   0.0694106  -0.0694106
    2  -0.0000020   0.0000020  -0.0000002   0.0000002
    3  -0.0000000  -0.0000000   0.0000000   0.0000000
 Max gradient component =       4.275E-01
 RMS gradient           =       1.768E-01
drvman.C: 248: out of SCF_Grad for normal SCF gradient
 Gradient time:  CPU 0.40 s  wall 0.39 s
 ------------------------------------------------------------------------------
                     drvman        : Timing summary (seconds)
 ------------------------------------------------------------------------------
     job step          cpu (% of tot)      sys (% of tot)     wall (% of tot)
 ------------------------------------------------------------------------------
 ------------------------------------------------------------------------------
   Grand Totals     0.3960E+00          0.5000E-05          0.3869E+00
 ------------------------------------------------------------------------------
drvman_main.C: 77: out of DrvMan =======================================================
            AB INITIO MOLECULAR DYNAMICS
=======================================================
Created directory /home/jcartus/scratch/qchem15438/AIMD
AIMD will take 200 BOMD steps Velocity Verlet integration
Time step = 20.00000 a.u. ( = 0.48378 fs)
Total simulation time requested = 96.755 fs
Integral threshold = 10**(-11)
SCF convergence threshold = 10**(-8)
Generating viewable xyz trajectory,
 file (in Angstroms) at AIMD/View.xyz
Choosing nuclear velocities from Maxwell-Boltzmann
Velocities sampled from Maxwell-Boltzmann at T = 298.0 K
sqrt(kT/m) and (vx,vy,vz) for each atom:
  1   2.0771e-04   9.70e-05   7.15e-04   3.63e-05 
  2   2.0771e-04   2.35e-05  -8.25e-05  -2.52e-05 
  3   7.1671e-04   4.58e-04  -1.18e-03   7.70e-04 
  4   7.1671e-04  -8.38e-05   1.32e-03  -1.28e-03 
T(nuclear) = 0.01092660 a.u.
v(c.o.m.) = (  7.0074e-05,   2.9720e-04,  -1.4693e-05)
T(c.o.m.) = 2.21592e-03 a.u.
kT/2 = 0.000472 a.u.
Tx   = 0.000308 a.u.
Ty   = 0.008544 a.u.
Tz   = 0.002075 a.u.
Mean velocities (a.u.):   1.2359e-04   1.9192e-04  -1.2522e-04
Removing c.o.m. velocity
T(nuclear) = 0.01547428 a.u.
v(c.o.m.) = ( -7.0232e-21,  -2.8093e-20,   9.3643e-21)
T(c.o.m.) = 2.19625e-35 a.u.
kT   = 0.000944 a.u. = 0.59 kcal/mol
Tx   = 0.000304 a.u. = 0.19 kcal/mol
Ty   = 0.013165 a.u. = 8.26 kcal/mol
Tz   = 0.002005 a.u. = 1.26 kcal/mol
Initial velocities in m/s
  1      1.2919e+02      1.2129e+03      9.6839e+01 
  2     -3.1697e+01     -5.3286e+02     -3.7606e+01 
  3      1.1755e+01     -6.7791e+03      1.8914e+03 
  4     -1.1725e+03     -1.3179e+03     -2.5967e+03 
----------------------------------------------------------------------------
       Nuclear coordinates (Angst) and velocities (a.u.)
----------------------------------------------------------------------------
             x        y        z            v_x         v_y        v_z
----------------------------------------------------------------------------
1      C   -2.8303   2.4635   0.0000     5.9052e-05   5.5442e-04   4.4265e-05
2      C   -1.3183   2.4635  -0.0000    -1.4489e-05  -2.4357e-04  -1.7190e-05
3      H   -3.8243   2.4635   0.0000     5.3731e-06  -3.0987e-03   8.6457e-04
4      H   -0.3243   2.4635  -0.0000    -5.3597e-04  -6.0243e-04  -1.1870e-03
----------------------------------------------------------------------------
Write nuclear velocities every 1 time steps

TIME STEP #1 (t = 0.000 a.u. = 0.00000 fs)
--------------------------------------
 Instantaneous Temperature = 814.4 K
 ----------------------------------------------------------------
             Standard Nuclear Orientation (Angstroms)
    I     Atom           X                Y                Z
 ----------------------------------------------------------------
    1      C      -2.8276467934     2.4693877008     0.0004684850
    2      C      -1.3204915758     2.4609521470    -0.0001819306
    3      H      -3.8282817495     2.4307244121     0.0091502377
    4      H      -0.3259438509     2.4571541270    -0.0125621751
 ----------------------------------------------------------------
 Nuclear Repulsion Energy =    21.6887149063 hartrees
 There are        7 alpha and        7 beta electrons

                       Distance Matrix (Angstroms)
             C (  1)   C (  2)   H (  3)
   C (  2)  1.507179
   H (  3)  1.001419  2.507990
   H (  4)  2.501767  0.994632  3.502505

 Applying Cartesian multipole field
    Component          Value
    ---------          -----
     (2,0,0)        1.00000E-11
     (0,2,0)        2.00000E-11
     (0,0,2)       -3.00000E-10
 Nucleus-field energy     =     0.0000000087 hartrees
 ENuRep (before)= 21.6887149063
 ENucField = 0.0000000087
 ENuRep (after) = 21.6887149150
 Job number = 2, Threshold = 1.00E-11
Integral type ranges set in mkLRange.C for JobNum: 2  <1-21|1-21>
Symmetry turned off temporarily
Symmetry turned back on
 Job number = 11, Threshold = 1.00E-11
Integral type ranges set in mkLRange.C for JobNum: 11  <1-21|22-22>
 Smallest overlap matrix eigenvalue = 3.95E-03
 Multipole matrices computed through 2nd order
 Guess from superposition of atomic densities
 Warning:  Energy on first SCF cycle will be non-variational
 SAD guess density has 14.000000 electrons
 SCF convergence criterion is 10**(-8)
 A restricted Hartree-Fock SCF calculation will be
 performed using Pulay DIIS extrapolation
 SCF converges when DIIS error is below 1.0E-08
Finding J and K together
 Job number = 22, Threshold = 1.00E-11
Integral type ranges set in mkLRange.C for JobNum: 22  <1-21|1-21>
 MakeJK  time:  CPU       0.08 s  wall       0.08 s
Fock build time:  0.08 s (CPU) 0.08 s (wall)
DIIS Errors:  Max 6.71E-01 RMS 9.33E-02

Current DIIS subspace size = 1
REM_GRID_RESTART_DIIS = 0

 ---------------------------------------
  Cycle       Energy         DIIS Error
 ---------------------------------------
    1     -76.6893748159      9.33E-02  00000
Finding J and K together
 Job number = 22, Threshold = 1.00E-11
Integral type ranges set in mkLRange.C for JobNum: 22  <1-21|1-21>
 MakeJK  time:  CPU       0.09 s  wall       0.09 s
Fock build time:  0.09 s (CPU) 0.09 s (wall)
DIIS Errors:  Max 5.32E-02 RMS 9.56E-03

Current DIIS subspace size = 2
REM_GRID_RESTART_DIIS = 0

    2     -76.6416485868      9.56E-03  00000
Finding J and K together
 Job number = 22, Threshold = 1.00E-11
Integral type ranges set in mkLRange.C for JobNum: 22  <1-21|1-21>
 MakeJK  time:  CPU       0.09 s  wall       0.09 s
Fock build time:  0.09 s (CPU) 0.09 s (wall)
DIIS Errors:  Max 1.46E-02 RMS 2.57E-03

Current DIIS subspace size = 3
REM_GRID_RESTART_DIIS = 0

    3     -76.6658675824      2.57E-03  00000
Finding J and K together
 Job number = 22, Threshold = 1.00E-11
Integral type ranges set in mkLRange.C for JobNum: 22  <1-21|1-21>
 MakeJK  time:  CPU       0.09 s  wall       0.09 s
Fock build time:  0.09 s (CPU) 0.09 s (wall)
DIIS Errors:  Max 4.04E-03 RMS 5.59E-04

Current DIIS subspace size = 4
REM_GRID_RESTART_DIIS = 0

    4     -76.6676843056      5.59E-04  00000
Finding J and K together
 Job number = 22, Threshold = 1.00E-11
Integral type ranges set in mkLRange.C for JobNum: 22  <1-21|1-21>
 MakeJK  time:  CPU       0.09 s  wall       0.09 s
Fock build time:  0.09 s (CPU) 0.09 s (wall)
DIIS Errors:  Max 4.15E-03 RMS 5.17E-04

Current DIIS subspace size = 5
REM_GRID_RESTART_DIIS = 0

    5     -76.6677070361      5.17E-04  00000
Finding J and K together
 Job number = 22, Threshold = 1.00E-11
Integral type ranges set in mkLRange.C for JobNum: 22  <1-21|1-21>
 MakeJK  time:  CPU       0.09 s  wall       0.09 s
Fock build time:  0.09 s (CPU) 0.09 s (wall)
DIIS Errors:  Max 2.93E-04 RMS 4.18E-05

Current DIIS subspace size = 6
REM_GRID_RESTART_DIIS = 0

    6     -76.6677491924      4.18E-05  00000
Finding J and K together
 Job number = 22, Threshold = 1.00E-11
Integral type ranges set in mkLRange.C for JobNum: 22  <1-21|1-21>
 MakeJK  time:  CPU       0.09 s  wall       0.09 s
Fock build time:  0.09 s (CPU) 0.09 s (wall)
DIIS Errors:  Max 3.09E-05 RMS 4.91E-06

Current DIIS subspace size = 7
REM_GRID_RESTART_DIIS = 0

    7     -76.6677495862      4.91E-06  00000
Finding J and K together
 Job number = 22, Threshold = 1.00E-11
Integral type ranges set in mkLRange.C for JobNum: 22  <1-21|1-21>
 MakeJK  time:  CPU       0.09 s  wall       0.09 s
Fock build time:  0.09 s (CPU) 0.09 s (wall)
DIIS Errors:  Max 1.64E-05 RMS 1.77E-06

Current DIIS subspace size = 8
REM_GRID_RESTART_DIIS = 0

    8     -76.6677495969      1.77E-06  00000
Finding J and K together
 Job number = 22, Threshold = 1.00E-11
Integral type ranges set in mkLRange.C for JobNum: 22  <1-21|1-21>
 MakeJK  time:  CPU       0.09 s  wall       0.09 s
Fock build time:  0.09 s (CPU) 0.09 s (wall)
DIIS Errors:  Max 1.40E-05 RMS 1.39E-06

Current DIIS subspace size = 9
REM_GRID_RESTART_DIIS = 0

    9     -76.6677495998      1.39E-06  00000
Finding J and K together
 Job number = 22, Threshold = 1.00E-11
Integral type ranges set in mkLRange.C for JobNum: 22  <1-21|1-21>
 MakeJK  time:  CPU       0.09 s  wall       0.09 s
Fock build time:  0.09 s (CPU) 0.09 s (wall)
DIIS Errors:  Max 1.03E-05 RMS 1.04E-06

Current DIIS subspace size = 10
REM_GRID_RESTART_DIIS = 0

   10     -76.6677496037      1.04E-06  00000
Finding J and K together
 Job number = 22, Threshold = 1.00E-11
Integral type ranges set in mkLRange.C for JobNum: 22  <1-21|1-21>
 MakeJK  time:  CPU       0.09 s  wall       0.09 s
Fock build time:  0.09 s (CPU) 0.09 s (wall)
DIIS Errors:  Max 2.23E-06 RMS 3.00E-07

Current DIIS subspace size = 11
REM_GRID_RESTART_DIIS = 0

   11     -76.6677496084      3.00E-07  00000
Finding J and K together
 Job number = 22, Threshold = 1.00E-11
Integral type ranges set in mkLRange.C for JobNum: 22  <1-21|1-21>
 MakeJK  time:  CPU       0.10 s  wall       0.09 s
Fock build time:  0.10 s (CPU) 0.09 s (wall)
DIIS Errors:  Max 4.61E-07 RMS 7.82E-08

Current DIIS subspace size = 12
REM_GRID_RESTART_DIIS = 0

   12     -76.6677496086      7.82E-08  00000
Finding J and K together
 Job number = 22, Threshold = 1.00E-11
Integral type ranges set in mkLRange.C for JobNum: 22  <1-21|1-21>
 MakeJK  time:  CPU       0.09 s  wall       0.09 s
Fock build time:  0.09 s (CPU) 0.09 s (wall)
DIIS Errors:  Max 5.79E-08 RMS 1.16E-08

Current DIIS subspace size = 13
REM_GRID_RESTART_DIIS = 0

   13     -76.6677496086      1.16E-08  00000
Finding J and K together
 Job number = 22, Threshold = 1.00E-11
Integral type ranges set in mkLRange.C for JobNum: 22  <1-21|1-21>
 MakeJK  time:  CPU       0.09 s  wall       0.09 s
Fock build time:  0.09 s (CPU) 0.09 s (wall)
DIIS Errors:  Max 2.67E-08 RMS 3.47E-09

Current DIIS subspace size = 14
REM_GRID_RESTART_DIIS = 0

   14     -76.6677496086      3.47E-09  00000 Convergence criterion met
 ---------------------------------------
 SCF time:  CPU 1.27 s  wall 1.28 s
 SCF   energy in the final basis set = -76.66774961
 Total energy in the final basis set = -76.66774961
drvman_main.C: 73: calling DrvMan  Calculating analytic gradient of the SCF energy
drvman.C : 218: Calculating analytic gradient of the SCF energy
drvman.C: 244: calling SCF_Grad for normal SCF gradient
 Job number = 111, Threshold = 1.00E-11
Integral type ranges set in mkLRange.C for JobNum: 11  <1-21|22-22>
Finding J and K together
 ML is being used
 Job number = 122, Threshold = 1.00E-11
Integral type ranges set in mkLRange.C for JobNum: 22  <1-21|1-21>
 MakeJK  time:  CPU       0.46 s  wall       0.46 s
 Gradient of SCF Energy
            1           2           3           4
    1  -0.4168381   0.4250597   0.0603442  -0.0685658
    2  -0.0007561  -0.0001280   0.0020269  -0.0011428
    3   0.0013120  -0.0014913  -0.0008394   0.0010187
 Max gradient component =       4.251E-01
 RMS gradient           =       1.739E-01
drvman.C: 248: out of SCF_Grad for normal SCF gradient
 Gradient time:  CPU 0.48 s  wall 0.47 s
 ------------------------------------------------------------------------------
                     drvman        : Timing summary (seconds)
 ------------------------------------------------------------------------------
     job step          cpu (% of tot)      sys (% of tot)     wall (% of tot)
 ------------------------------------------------------------------------------
 ------------------------------------------------------------------------------
   Grand Totals     0.4840E+00          0.6000E-05          0.4722E+00
 ------------------------------------------------------------------------------
drvman_main.C: 77: out of DrvMan  Time for this dynamics step: 1.8 s (CPU) 1.8 s (wall)

TIME STEP #2 (t = 20.000 a.u. = 0.48378 fs)
--------------------------------------
 Instantaneous Temperature = 1036.6 K
 ----------------------------------------------------------------
             Standard Nuclear Orientation (Angstroms)
    I     Atom           X                Y                Z
 ----------------------------------------------------------------
    1      C      -2.8209200388     2.4752627180     0.0009242748
    2      C      -1.3268262559     2.4583755324    -0.0003494305
    3      H      -3.8391761353     2.3976952981     0.0183971876
    4      H      -0.3197178056     2.4509099205    -0.0252417259
 ----------------------------------------------------------------
 Nuclear Repulsion Energy =    21.6929104688 hartrees
 There are        7 alpha and        7 beta electrons

                       Distance Matrix (Angstroms)
             C (  1)   C (  2)   H (  3)
   C (  2)  1.494190
   H (  3)  1.021356  2.513152
   H (  4)  2.501458  1.007444  3.520131

 Applying Cartesian multipole field
    Component          Value
    ---------          -----
     (2,0,0)        1.00000E-11
     (0,2,0)        2.00000E-11
     (0,0,2)       -3.00000E-10
 Nucleus-field energy     =     0.0000000087 hartrees
 ENuRep (before)= 21.6929104688
 ENucField = 0.0000000087
 ENuRep (after) = 21.6929104775
 Job number = 2, Threshold = 1.00E-11
Integral type ranges set in mkLRange.C for JobNum: 2  <1-21|1-21>
Symmetry turned off temporarily
Symmetry turned back on
 Job number = 11, Threshold = 1.00E-11
Integral type ranges set in mkLRange.C for JobNum: 11  <1-21|22-22>
 Smallest overlap matrix eigenvalue = 3.93E-03
 Multipole matrices computed through 2nd order
 Guess from superposition of atomic densities
 Warning:  Energy on first SCF cycle will be non-variational
 SAD guess density has 14.000000 electrons
 SCF convergence criterion is 10**(-8)
 A restricted Hartree-Fock SCF calculation will be
 performed using Pulay DIIS extrapolation
 SCF converges when DIIS error is below 1.0E-08
Finding J and K together
 Job number = 22, Threshold = 1.00E-11
Integral type ranges set in mkLRange.C for JobNum: 22  <1-21|1-21>
 MakeJK  time:  CPU       0.08 s  wall       0.08 s
Fock build time:  0.08 s (CPU) 0.08 s (wall)
DIIS Errors:  Max 6.62E-01 RMS 9.29E-02

Current DIIS subspace size = 1
REM_GRID_RESTART_DIIS = 0

 ---------------------------------------
  Cycle       Energy         DIIS Error
 ---------------------------------------
    1     -76.6882165597      9.29E-02  00000
Finding J and K together
 Job number = 22, Threshold = 1.00E-11
Integral type ranges set in mkLRange.C for JobNum: 22  <1-21|1-21>
 MakeJK  time:  CPU       0.09 s  wall       0.09 s
Fock build time:  0.09 s (CPU) 0.09 s (wall)
DIIS Errors:  Max 5.23E-02 RMS 9.49E-03

Current DIIS subspace size = 2
REM_GRID_RESTART_DIIS = 0

    2     -76.6540517361      9.49E-03  00000
Finding J and K together
 Job number = 22, Threshold = 1.00E-11
Integral type ranges set in mkLRange.C for JobNum: 22  <1-21|1-21>
 MakeJK  time:  CPU       0.09 s  wall       0.09 s
Fock build time:  0.09 s (CPU) 0.09 s (wall)
DIIS Errors:  Max 1.52E-02 RMS 2.56E-03

Current DIIS subspace size = 3
REM_GRID_RESTART_DIIS = 0

    3     -76.6778746710      2.56E-03  00000
Finding J and K together
 Job number = 22, Threshold = 1.00E-11
Integral type ranges set in mkLRange.C for JobNum: 22  <1-21|1-21>
 MakeJK  time:  CPU       0.09 s  wall       0.09 s
Fock build time:  0.09 s (CPU) 0.09 s (wall)
DIIS Errors:  Max 5.90E-03 RMS 7.92E-04

Current DIIS subspace size = 4
REM_GRID_RESTART_DIIS = 0

    4     -76.6796222199      7.92E-04  00000
Finding J and K together
 Job number = 22, Threshold = 1.00E-11
Integral type ranges set in mkLRange.C for JobNum: 22  <1-21|1-21>
 MakeJK  time:  CPU       0.09 s  wall       0.09 s
Fock build time:  0.09 s (CPU) 0.09 s (wall)
DIIS Errors:  Max 5.08E-03 RMS 6.28E-04

Current DIIS subspace size = 5
REM_GRID_RESTART_DIIS = 0

    5     -76.6796752247      6.28E-04  00000
Finding J and K together
 Job number = 22, Threshold = 1.00E-11
Integral type ranges set in mkLRange.C for JobNum: 22  <1-21|1-21>
 MakeJK  time:  CPU       0.09 s  wall       0.09 s
Fock build time:  0.09 s (CPU) 0.09 s (wall)
DIIS Errors:  Max 2.69E-04 RMS 3.41E-05

Current DIIS subspace size = 6
REM_GRID_RESTART_DIIS = 0

    6     -76.6797379087      3.41E-05  00000
Finding J and K together
 Job number = 22, Threshold = 1.00E-11
Integral type ranges set in mkLRange.C for JobNum: 22  <1-21|1-21>
 MakeJK  time:  CPU       0.09 s  wall       0.09 s
Fock build time:  0.09 s (CPU) 0.09 s (wall)
DIIS Errors:  Max 6.95E-05 RMS 8.06E-06

Current DIIS subspace size = 7
REM_GRID_RESTART_DIIS = 0

    7     -76.6797382785      8.06E-06  00000
Finding J and K together
 Job number = 22, Threshold = 1.00E-11
Integral type ranges set in mkLRange.C for JobNum: 22  <1-21|1-21>
 MakeJK  time:  CPU       0.09 s  wall       0.09 s
Fock build time:  0.09 s (CPU) 0.09 s (wall)
DIIS Errors:  Max 5.49E-05 RMS 5.44E-06

Current DIIS subspace size = 8
REM_GRID_RESTART_DIIS = 0

    8     -76.6797383448      5.44E-06  00000
Finding J and K together
 Job number = 22, Threshold = 1.00E-11
Integral type ranges set in mkLRange.C for JobNum: 22  <1-21|1-21>
 MakeJK  time:  CPU       0.09 s  wall       0.09 s
Fock build time:  0.09 s (CPU) 0.09 s (wall)
DIIS Errors:  Max 3.99E-05 RMS 4.01E-06

Current DIIS subspace size = 9
REM_GRID_RESTART_DIIS = 0

    9     -76.6797384021      4.01E-06  00000
Finding J and K together
 Job number = 22, Threshold = 1.00E-11
Integral type ranges set in mkLRange.C for JobNum: 22  <1-21|1-21>
 MakeJK  time:  CPU       0.09 s  wall       0.09 s
Fock build time:  0.09 s (CPU) 0.09 s (wall)
DIIS Errors:  Max 1.18E-05 RMS 1.31E-06

Current DIIS subspace size = 10
REM_GRID_RESTART_DIIS = 0

   10     -76.6797384646      1.31E-06  00000
Finding J and K together
 Job number = 22, Threshold = 1.00E-11
Integral type ranges set in mkLRange.C for JobNum: 22  <1-21|1-21>
 MakeJK  time:  CPU       0.09 s  wall       0.09 s
Fock build time:  0.09 s (CPU) 0.09 s (wall)
DIIS Errors:  Max 2.31E-06 RMS 3.26E-07

Current DIIS subspace size = 11
REM_GRID_RESTART_DIIS = 0

   11     -76.6797384701      3.26E-07  00000
Finding J and K together
 Job number = 22, Threshold = 1.00E-11
Integral type ranges set in mkLRange.C for JobNum: 22  <1-21|1-21>
 MakeJK  time:  CPU       0.09 s  wall       0.09 s
Fock build time:  0.09 s (CPU) 0.09 s (wall)
DIIS Errors:  Max 3.93E-07 RMS 7.18E-08

Current DIIS subspace size = 12
REM_GRID_RESTART_DIIS = 0

   12     -76.6797384701      7.18E-08  00000
Finding J and K together
 Job number = 22, Threshold = 1.00E-11
Integral type ranges set in mkLRange.C for JobNum: 22  <1-21|1-21>
 MakeJK  time:  CPU       0.09 s  wall       0.09 s
Fock build time:  0.09 s (CPU) 0.09 s (wall)
DIIS Errors:  Max 5.66E-08 RMS 1.39E-08

Current DIIS subspace size = 13
REM_GRID_RESTART_DIIS = 0

   13     -76.6797384701      1.39E-08  00000
Finding J and K together
 Job number = 22, Threshold = 1.00E-11
Integral type ranges set in mkLRange.C for JobNum: 22  <1-21|1-21>
 MakeJK  time:  CPU       0.09 s  wall       0.09 s
Fock build time:  0.09 s (CPU) 0.09 s (wall)
DIIS Errors:  Max 2.18E-08 RMS 3.57E-09

Current DIIS subspace size = 14
REM_GRID_RESTART_DIIS = 0

   14     -76.6797384701      3.57E-09  00000 Convergence criterion met
 ---------------------------------------
 SCF time:  CPU 1.29 s  wall 1.29 s
 SCF   energy in the final basis set = -76.67973847
 Total energy in the final basis set = -76.67973847
drvman_main.C: 73: calling DrvMan  Calculating analytic gradient of the SCF energy
drvman.C : 218: Calculating analytic gradient of the SCF energy
drvman.C: 244: calling SCF_Grad for normal SCF gradient
 Job number = 111, Threshold = 1.00E-11
Integral type ranges set in mkLRange.C for JobNum: 11  <1-21|22-22>
Finding J and K together
 ML is being used
 Job number = 122, Threshold = 1.00E-11
Integral type ranges set in mkLRange.C for JobNum: 22  <1-21|1-21>
 MakeJK  time:  CPU       0.48 s  wall       0.46 s
 Gradient of SCF Energy
            1           2           3           4
    1  -0.3895824   0.4049823   0.0377884  -0.0531884
    2   0.0004825  -0.0004356   0.0021898  -0.0022366
    3   0.0020896  -0.0024590  -0.0012179   0.0015872
 Max gradient component =       4.050E-01
 RMS gradient           =       1.633E-01
drvman.C: 248: out of SCF_Grad for normal SCF gradient
 Gradient time:  CPU 0.48 s  wall 0.47 s
 ------------------------------------------------------------------------------
                     drvman        : Timing summary (seconds)
 ------------------------------------------------------------------------------
     job step          cpu (% of tot)      sys (% of tot)     wall (% of tot)
 ------------------------------------------------------------------------------
 ------------------------------------------------------------------------------
   Grand Totals     0.4840E+00          0.7000E-05          0.4733E+00
 ------------------------------------------------------------------------------
drvman_main.C: 77: out of DrvMan  Time for this dynamics step: 1.8 s (CPU) 1.8 s (wall)

TIME STEP #3 (t = 40.000 a.u. = 0.96755 fs)
--------------------------------------
 Instantaneous Temperature = 1656.5 K
 ----------------------------------------------------------------
             Standard Nuclear Orientation (Angstroms)
    I     Atom           X                Y                Z
 ----------------------------------------------------------------
    1      C      -2.8104234778     2.4811330664     0.0013598440
    2      C      -1.3370797609     2.4558031329    -0.0004931359
    3      H      -3.8544243614     2.3644138868     0.0277844585
    4      H      -0.3073635908     2.4449234118    -0.0381041535
 ----------------------------------------------------------------
 Nuclear Repulsion Energy =    21.7084496209 hartrees
 There are        7 alpha and        7 beta electrons

                       Distance Matrix (Angstroms)
             C (  1)   C (  2)   H (  3)
   C (  2)  1.473563
   H (  3)  1.050838  2.519162
   H (  4)  2.503633  1.030460  3.548586

 Applying Cartesian multipole field
    Component          Value
    ---------          -----
     (2,0,0)        1.00000E-11
     (0,2,0)        2.00000E-11
     (0,0,2)       -3.00000E-10
 Nucleus-field energy     =     0.0000000087 hartrees
 ENuRep (before)= 21.7084496209
 ENucField = 0.0000000087
 ENuRep (after) = 21.7084496296
 Job number = 2, Threshold = 1.00E-11
Integral type ranges set in mkLRange.C for JobNum: 2  <1-21|1-21>
Symmetry turned off temporarily
Symmetry turned back on
 Job number = 11, Threshold = 1.00E-11
Integral type ranges set in mkLRange.C for JobNum: 11  <1-21|22-22>
 Smallest overlap matrix eigenvalue = 3.87E-03
 Multipole matrices computed through 2nd order
 Guess from superposition of atomic densities
 Warning:  Energy on first SCF cycle will be non-variational
 SAD guess density has 14.000000 electrons
 SCF convergence criterion is 10**(-8)
 A restricted Hartree-Fock SCF calculation will be
 performed using Pulay DIIS extrapolation
 SCF converges when DIIS error is below 1.0E-08
Finding J and K together
 Job number = 22, Threshold = 1.00E-11
Integral type ranges set in mkLRange.C for JobNum: 22  <1-21|1-21>
 MakeJK  time:  CPU       0.09 s  wall       0.08 s
Fock build time:  0.09 s (CPU) 0.08 s (wall)
DIIS Errors:  Max 6.44E-01 RMS 9.24E-02

Current DIIS subspace size = 1
REM_GRID_RESTART_DIIS = 0

 ---------------------------------------
  Cycle       Energy         DIIS Error
 ---------------------------------------
    1     -76.6863104340      9.24E-02  00000
Finding J and K together
 Job number = 22, Threshold = 1.00E-11
Integral type ranges set in mkLRange.C for JobNum: 22  <1-21|1-21>
 MakeJK  time:  CPU       0.09 s  wall       0.09 s
Fock build time:  0.09 s (CPU) 0.09 s (wall)
DIIS Errors:  Max 5.05E-02 RMS 9.39E-03

Current DIIS subspace size = 2
REM_GRID_RESTART_DIIS = 0

    2     -76.6712016459      9.39E-03  00000
Finding J and K together
 Job number = 22, Threshold = 1.00E-11
Integral type ranges set in mkLRange.C for JobNum: 22  <1-21|1-21>
 MakeJK  time:  CPU       0.10 s  wall       0.09 s
Fock build time:  0.10 s (CPU) 0.09 s (wall)
DIIS Errors:  Max 1.52E-02 RMS 2.52E-03

Current DIIS subspace size = 3
REM_GRID_RESTART_DIIS = 0

    3     -76.6944591018      2.52E-03  00000
Finding J and K together
 Job number = 22, Threshold = 1.00E-11
Integral type ranges set in mkLRange.C for JobNum: 22  <1-21|1-21>
 MakeJK  time:  CPU       0.09 s  wall       0.09 s
Fock build time:  0.09 s (CPU) 0.09 s (wall)
DIIS Errors:  Max 6.33E-03 RMS 8.27E-04

Current DIIS subspace size = 4
REM_GRID_RESTART_DIIS = 0

    4     -76.6961555555      8.27E-04  00000
Finding J and K together
 Job number = 22, Threshold = 1.00E-11
Integral type ranges set in mkLRange.C for JobNum: 22  <1-21|1-21>
 MakeJK  time:  CPU       0.09 s  wall       0.09 s
Fock build time:  0.09 s (CPU) 0.09 s (wall)
DIIS Errors:  Max 4.97E-03 RMS 6.06E-04

Current DIIS subspace size = 5
REM_GRID_RESTART_DIIS = 0

    5     -76.6962224511      6.06E-04  00000
Finding J and K together
 Job number = 22, Threshold = 1.00E-11
Integral type ranges set in mkLRange.C for JobNum: 22  <1-21|1-21>
 MakeJK  time:  CPU       0.09 s  wall       0.09 s
Fock build time:  0.09 s (CPU) 0.09 s (wall)
DIIS Errors:  Max 2.87E-04 RMS 3.64E-05

Current DIIS subspace size = 6
REM_GRID_RESTART_DIIS = 0

    6     -76.6962810045      3.64E-05  00000
Finding J and K together
 Job number = 22, Threshold = 1.00E-11
Integral type ranges set in mkLRange.C for JobNum: 22  <1-21|1-21>
 MakeJK  time:  CPU       0.09 s  wall       0.09 s
Fock build time:  0.09 s (CPU) 0.09 s (wall)
DIIS Errors:  Max 1.27E-04 RMS 1.35E-05

Current DIIS subspace size = 7
REM_GRID_RESTART_DIIS = 0

    7     -76.6962815654      1.35E-05  00000
Finding J and K together
 Job number = 22, Threshold = 1.00E-11
Integral type ranges set in mkLRange.C for JobNum: 22  <1-21|1-21>
 MakeJK  time:  CPU       0.09 s  wall       0.09 s
Fock build time:  0.09 s (CPU) 0.09 s (wall)
DIIS Errors:  Max 1.03E-04 RMS 1.03E-05

Current DIIS subspace size = 8
REM_GRID_RESTART_DIIS = 0

    8     -76.6962817472      1.03E-05  00000
Finding J and K together
 Job number = 22, Threshold = 1.00E-11
Integral type ranges set in mkLRange.C for JobNum: 22  <1-21|1-21>
 MakeJK  time:  CPU       0.10 s  wall       0.09 s
Fock build time:  0.10 s (CPU) 0.09 s (wall)
DIIS Errors:  Max 7.39E-05 RMS 7.42E-06

Current DIIS subspace size = 9
REM_GRID_RESTART_DIIS = 0

    9     -76.6962819351      7.42E-06  00000
Finding J and K together
 Job number = 22, Threshold = 1.00E-11
Integral type ranges set in mkLRange.C for JobNum: 22  <1-21|1-21>
 MakeJK  time:  CPU       0.09 s  wall       0.09 s
Fock build time:  0.09 s (CPU) 0.09 s (wall)
DIIS Errors:  Max 1.06E-05 RMS 1.30E-06

Current DIIS subspace size = 10
REM_GRID_RESTART_DIIS = 0

   10     -76.6962821363      1.30E-06  00000
Finding J and K together
 Job number = 22, Threshold = 1.00E-11
Integral type ranges set in mkLRange.C for JobNum: 22  <1-21|1-21>
 MakeJK  time:  CPU       0.09 s  wall       0.09 s
Fock build time:  0.09 s (CPU) 0.09 s (wall)
DIIS Errors:  Max 1.79E-06 RMS 2.28E-07

Current DIIS subspace size = 11
REM_GRID_RESTART_DIIS = 0

   11     -76.6962821403      2.28E-07  00000
Finding J and K together
 Job number = 22, Threshold = 1.00E-11
Integral type ranges set in mkLRange.C for JobNum: 22  <1-21|1-21>
 MakeJK  time:  CPU       0.09 s  wall       0.09 s
Fock build time:  0.09 s (CPU) 0.09 s (wall)
DIIS Errors:  Max 4.07E-07 RMS 4.64E-08

Current DIIS subspace size = 12
REM_GRID_RESTART_DIIS = 0

   12     -76.6962821403      4.64E-08  00000
Finding J and K together
 Job number = 22, Threshold = 1.00E-11
Integral type ranges set in mkLRange.C for JobNum: 22  <1-21|1-21>
 MakeJK  time:  CPU       0.09 s  wall       0.09 s
Fock build time:  0.09 s (CPU) 0.09 s (wall)
DIIS Errors:  Max 7.50E-08 RMS 8.77E-09

Current DIIS subspace size = 13
REM_GRID_RESTART_DIIS = 0

   13     -76.6962821403      8.77E-09  00000 Convergence criterion met
 ---------------------------------------
 SCF time:  CPU 1.22 s  wall 1.22 s
 SCF   energy in the final basis set = -76.69628214
 Total energy in the final basis set = -76.69628214
drvman_main.C: 73: calling DrvMan  Calculating analytic gradient of the SCF energy
drvman.C : 218: Calculating analytic gradient of the SCF energy
drvman.C: 244: calling SCF_Grad for normal SCF gradient
 Job number = 111, Threshold = 1.00E-11
Integral type ranges set in mkLRange.C for JobNum: 11  <1-21|22-22>
Finding J and K together
 ML is being used
 Job number = 122, Threshold = 1.00E-11
Integral type ranges set in mkLRange.C for JobNum: 22  <1-21|1-21>
 MakeJK  time:  CPU       0.45 s  wall       0.44 s
 Gradient of SCF Energy
            1           2           3           4
    1  -0.3521105   0.3714754   0.0088001  -0.0281650
    2   0.0045188  -0.0010374  -0.0002329  -0.0032486
    3   0.0020726  -0.0024441  -0.0009379   0.0013094
 Max gradient component =       3.715E-01
 RMS gradient           =       1.480E-01
drvman.C: 248: out of SCF_Grad for normal SCF gradient
 Gradient time:  CPU 0.46 s  wall 0.45 s
 ------------------------------------------------------------------------------
                     drvman        : Timing summary (seconds)
 ------------------------------------------------------------------------------
     job step          cpu (% of tot)      sys (% of tot)     wall (% of tot)
 ------------------------------------------------------------------------------
 ------------------------------------------------------------------------------
   Grand Totals     0.4560E+00          0.4000E-05          0.4457E+00
 ------------------------------------------------------------------------------
drvman_main.C: 77: out of DrvMan  Time for this dynamics step: 1.7 s (CPU) 1.7 s (wall)

TIME STEP #4 (t = 60.000 a.u. = 1.45133 fs)
--------------------------------------
 Instantaneous Temperature = 2516.2 K
 ----------------------------------------------------------------
             Standard Nuclear Orientation (Angstroms)
    I     Atom           X                Y                Z
 ----------------------------------------------------------------
    1      C      -2.7965197075     2.4869596882     0.0017753574
    2      C      -1.3509278600     2.4532407716    -0.0006131911
    3      H      -3.8706865007     2.3311593058     0.0372797954
    4      H      -0.2917643154     2.4393111948    -0.0511174421
 ----------------------------------------------------------------
 Nuclear Repulsion Energy =    21.7656648000 hartrees
 There are        7 alpha and        7 beta electrons

                       Distance Matrix (Angstroms)
             C (  1)   C (  2)   H (  3)
   C (  2)  1.445987
   H (  3)  1.085987  2.522999
   H (  4)  2.505767  1.060458  3.581647

 Applying Cartesian multipole field
    Component          Value
    ---------          -----
     (2,0,0)        1.00000E-11
     (0,2,0)        2.00000E-11
     (0,0,2)       -3.00000E-10
 Nucleus-field energy     =     0.0000000086 hartrees
 ENuRep (before)= 21.7656648000
 ENucField = 0.0000000086
 ENuRep (after) = 21.7656648086
 Job number = 2, Threshold = 1.00E-11
Integral type ranges set in mkLRange.C for JobNum: 2  <1-21|1-21>
Symmetry turned off temporarily
Symmetry turned back on
 Job number = 11, Threshold = 1.00E-11
Integral type ranges set in mkLRange.C for JobNum: 11  <1-21|22-22>
 Smallest overlap matrix eigenvalue = 3.74E-03
 Multipole matrices computed through 2nd order
 Guess from superposition of atomic densities
 Warning:  Energy on first SCF cycle will be non-variational
 SAD guess density has 14.000000 electrons
 SCF convergence criterion is 10**(-8)
 A restricted Hartree-Fock SCF calculation will be
 performed using Pulay DIIS extrapolation
 SCF converges when DIIS error is below 1.0E-08
Finding J and K together
 Job number = 22, Threshold = 1.00E-11
Integral type ranges set in mkLRange.C for JobNum: 22  <1-21|1-21>
 MakeJK  time:  CPU       0.08 s  wall       0.08 s
Fock build time:  0.08 s (CPU) 0.08 s (wall)
DIIS Errors:  Max 6.23E-01 RMS 9.26E-02

Current DIIS subspace size = 1
REM_GRID_RESTART_DIIS = 0

 ---------------------------------------
  Cycle       Energy         DIIS Error
 ---------------------------------------
    1     -76.6878457259      9.26E-02  00000
Finding J and K together
 Job number = 22, Threshold = 1.00E-11
Integral type ranges set in mkLRange.C for JobNum: 22  <1-21|1-21>
 MakeJK  time:  CPU       0.09 s  wall       0.09 s
Fock build time:  0.09 s (CPU) 0.09 s (wall)
DIIS Errors:  Max 4.79E-02 RMS 9.30E-03

Current DIIS subspace size = 2
REM_GRID_RESTART_DIIS = 0

    2     -76.6897060787      9.30E-03  00000
Finding J and K together
 Job number = 22, Threshold = 1.00E-11
Integral type ranges set in mkLRange.C for JobNum: 22  <1-21|1-21>
 MakeJK  time:  CPU       0.09 s  wall       0.09 s
Fock build time:  0.09 s (CPU) 0.09 s (wall)
DIIS Errors:  Max 1.47E-02 RMS 2.47E-03

Current DIIS subspace size = 3
REM_GRID_RESTART_DIIS = 0

    3     -76.7123471415      2.47E-03  00000
Finding J and K together
 Job number = 22, Threshold = 1.00E-11
Integral type ranges set in mkLRange.C for JobNum: 22  <1-21|1-21>
 MakeJK  time:  CPU       0.09 s  wall       0.09 s
Fock build time:  0.09 s (CPU) 0.09 s (wall)
DIIS Errors:  Max 5.21E-03 RMS 6.97E-04

Current DIIS subspace size = 4
REM_GRID_RESTART_DIIS = 0

    4     -76.7140182426      6.97E-04  00000
Finding J and K together
 Job number = 22, Threshold = 1.00E-11
Integral type ranges set in mkLRange.C for JobNum: 22  <1-21|1-21>
 MakeJK  time:  CPU       0.09 s  wall       0.09 s
Fock build time:  0.09 s (CPU) 0.09 s (wall)
DIIS Errors:  Max 4.49E-03 RMS 5.36E-04

Current DIIS subspace size = 5
REM_GRID_RESTART_DIIS = 0

    5     -76.7140676022      5.36E-04  00000
Finding J and K together
 Job number = 22, Threshold = 1.00E-11
Integral type ranges set in mkLRange.C for JobNum: 22  <1-21|1-21>
 MakeJK  time:  CPU       0.09 s  wall       0.09 s
Fock build time:  0.09 s (CPU) 0.09 s (wall)
DIIS Errors:  Max 4.23E-04 RMS 4.56E-05

Current DIIS subspace size = 6
REM_GRID_RESTART_DIIS = 0

    6     -76.7141130694      4.56E-05  00000
Finding J and K together
 Job number = 22, Threshold = 1.00E-11
Integral type ranges set in mkLRange.C for JobNum: 22  <1-21|1-21>
 MakeJK  time:  CPU       0.09 s  wall       0.09 s
Fock build time:  0.09 s (CPU) 0.09 s (wall)
DIIS Errors:  Max 1.83E-04 RMS 1.90E-05

Current DIIS subspace size = 7
REM_GRID_RESTART_DIIS = 0

    7     -76.7141139448      1.90E-05  00000
Finding J and K together
 Job number = 22, Threshold = 1.00E-11
Integral type ranges set in mkLRange.C for JobNum: 22  <1-21|1-21>
 MakeJK  time:  CPU       0.09 s  wall       0.09 s
Fock build time:  0.09 s (CPU) 0.09 s (wall)
DIIS Errors:  Max 1.43E-04 RMS 1.42E-05

Current DIIS subspace size = 8
REM_GRID_RESTART_DIIS = 0

    8     -76.7141142737      1.42E-05  00000
Finding J and K together
 Job number = 22, Threshold = 1.00E-11
Integral type ranges set in mkLRange.C for JobNum: 22  <1-21|1-21>
 MakeJK  time:  CPU       0.09 s  wall       0.09 s
Fock build time:  0.09 s (CPU) 0.09 s (wall)
DIIS Errors:  Max 8.49E-05 RMS 8.58E-06

Current DIIS subspace size = 9
REM_GRID_RESTART_DIIS = 0

    9     -76.7141146883      8.58E-06  00000
Finding J and K together
 Job number = 22, Threshold = 1.00E-11
Integral type ranges set in mkLRange.C for JobNum: 22  <1-21|1-21>
 MakeJK  time:  CPU       0.09 s  wall       0.09 s
Fock build time:  0.09 s (CPU) 0.09 s (wall)
DIIS Errors:  Max 7.72E-06 RMS 1.19E-06

Current DIIS subspace size = 10
REM_GRID_RESTART_DIIS = 0

   10     -76.7141149184      1.19E-06  00000
Finding J and K together
 Job number = 22, Threshold = 1.00E-11
Integral type ranges set in mkLRange.C for JobNum: 22  <1-21|1-21>
 MakeJK  time:  CPU       0.09 s  wall       0.09 s
Fock build time:  0.09 s (CPU) 0.09 s (wall)
DIIS Errors:  Max 1.28E-06 RMS 2.86E-07

Current DIIS subspace size = 11
REM_GRID_RESTART_DIIS = 0

   11     -76.7141149208      2.86E-07  00000
Finding J and K together
 Job number = 22, Threshold = 1.00E-11
Integral type ranges set in mkLRange.C for JobNum: 22  <1-21|1-21>
 MakeJK  time:  CPU       0.09 s  wall       0.09 s
Fock build time:  0.09 s (CPU) 0.09 s (wall)
DIIS Errors:  Max 5.09E-07 RMS 6.93E-08

Current DIIS subspace size = 12
REM_GRID_RESTART_DIIS = 0

   12     -76.7141149208      6.93E-08  00000
Finding J and K together
 Job number = 22, Threshold = 1.00E-11
Integral type ranges set in mkLRange.C for JobNum: 22  <1-21|1-21>
 MakeJK  time:  CPU       0.09 s  wall       0.09 s
Fock build time:  0.09 s (CPU) 0.09 s (wall)
DIIS Errors:  Max 1.17E-07 RMS 1.55E-08

Current DIIS subspace size = 13
REM_GRID_RESTART_DIIS = 0

   13     -76.7141149208      1.55E-08  00000
Finding J and K together
 Job number = 22, Threshold = 1.00E-11
Integral type ranges set in mkLRange.C for JobNum: 22  <1-21|1-21>
 MakeJK  time:  CPU       0.09 s  wall       0.09 s
Fock build time:  0.09 s (CPU) 0.09 s (wall)
DIIS Errors:  Max 1.32E-08 RMS 2.48E-09

Current DIIS subspace size = 14
REM_GRID_RESTART_DIIS = 0

   14     -76.7141149208      2.48E-09  00000 Convergence criterion met
 ---------------------------------------
 SCF time:  CPU 1.30 s  wall 1.30 s
 SCF   energy in the final basis set = -76.71411492
 Total energy in the final basis set = -76.71411492
drvman_main.C: 73: calling DrvMan  Calculating analytic gradient of the SCF energy
drvman.C : 218: Calculating analytic gradient of the SCF energy
drvman.C: 244: calling SCF_Grad for normal SCF gradient
 Job number = 111, Threshold = 1.00E-11
Integral type ranges set in mkLRange.C for JobNum: 11  <1-21|22-22>
Finding J and K together
 ML is being used
 Job number = 122, Threshold = 1.00E-11
Integral type ranges set in mkLRange.C for JobNum: 22  <1-21|1-21>
 MakeJK  time:  CPU       0.42 s  wall       0.42 s
 Gradient of SCF Energy
            1           2           3           4
    1  -0.3100401   0.3298616  -0.0198579   0.0000364
    2   0.0109539  -0.0020354  -0.0048201  -0.0040985
    3   0.0012892  -0.0013786  -0.0000766   0.0001660
 Max gradient component =       3.299E-01
 RMS gradient           =       1.309E-01
drvman.C: 248: out of SCF_Grad for normal SCF gradient
 Gradient time:  CPU 0.43 s  wall 0.42 s
 ------------------------------------------------------------------------------
                     drvman        : Timing summary (seconds)
 ------------------------------------------------------------------------------
     job step          cpu (% of tot)      sys (% of tot)     wall (% of tot)
 ------------------------------------------------------------------------------
 ------------------------------------------------------------------------------
   Grand Totals     0.4320E+00          0.4000E-05          0.4247E+00
 ------------------------------------------------------------------------------
drvman_main.C: 77: out of DrvMan  Time for this dynamics step: 1.8 s (CPU) 1.8 s (wall)

TIME STEP #5 (t = 80.000 a.u. = 1.93511 fs)
--------------------------------------
 Instantaneous Temperature = 3448.4 K
 ----------------------------------------------------------------
             Standard Nuclear Orientation (Angstroms)
    I     Atom           X                Y                Z
 ----------------------------------------------------------------
    1      C      -2.7796158240     2.4926803138     0.0021783960
    2      C      -1.3679678753     2.4506981058    -0.0007199066
    3      H      -3.8846606896     2.2984600759     0.0467839559
    4      H      -0.2761692368     2.4341711883    -0.0641498528
 ----------------------------------------------------------------
 Nuclear Repulsion Energy =    21.8926902882 hartrees
 There are        7 alpha and        7 beta electrons

                       Distance Matrix (Angstroms)
             C (  1)   C (  2)   H (  3)
   C (  2)  1.412275
   H (  3)  1.122869  2.521741
   H (  4)  2.505008  1.093764  3.612746

 Applying Cartesian multipole field
    Component          Value
    ---------          -----
     (2,0,0)        1.00000E-11
     (0,2,0)        2.00000E-11
     (0,0,2)       -3.00000E-10
 Nucleus-field energy     =     0.0000000086 hartrees
 ENuRep (before)= 21.8926902882
 ENucField = 0.0000000086
 ENuRep (after) = 21.8926902968
 Job number = 2, Threshold = 1.00E-11
Integral type ranges set in mkLRange.C for JobNum: 2  <1-21|1-21>
Symmetry turned off temporarily
Symmetry turned back on
 Job number = 11, Threshold = 1.00E-11
Integral type ranges set in mkLRange.C for JobNum: 11  <1-21|22-22>
 Smallest overlap matrix eigenvalue = 3.52E-03
 Multipole matrices computed through 2nd order
 Guess from superposition of atomic densities
 Warning:  Energy on first SCF cycle will be non-variational
 SAD guess density has 14.000000 electrons
 SCF convergence criterion is 10**(-8)
 A restricted Hartree-Fock SCF calculation will be
 performed using Pulay DIIS extrapolation
 SCF converges when DIIS error is below 1.0E-08
Finding J and K together
 Job number = 22, Threshold = 1.00E-11
Integral type ranges set in mkLRange.C for JobNum: 22  <1-21|1-21>
 MakeJK  time:  CPU       0.08 s  wall       0.08 s
Fock build time:  0.08 s (CPU) 0.08 s (wall)
DIIS Errors:  Max 6.01E-01 RMS 9.38E-02

Current DIIS subspace size = 1
REM_GRID_RESTART_DIIS = 0

 ---------------------------------------
  Cycle       Energy         DIIS Error
 ---------------------------------------
    1     -76.6979427068      9.38E-02  00000
Finding J and K together
 Job number = 22, Threshold = 1.00E-11
Integral type ranges set in mkLRange.C for JobNum: 22  <1-21|1-21>
 MakeJK  time:  CPU       0.09 s  wall       0.09 s
Fock build time:  0.09 s (CPU) 0.09 s (wall)
DIIS Errors:  Max 4.53E-02 RMS 9.24E-03

Current DIIS subspace size = 2
REM_GRID_RESTART_DIIS = 0

    2     -76.7074041942      9.24E-03  00000
Finding J and K together
 Job number = 22, Threshold = 1.00E-11
Integral type ranges set in mkLRange.C for JobNum: 22  <1-21|1-21>
 MakeJK  time:  CPU       0.09 s  wall       0.09 s
Fock build time:  0.09 s (CPU) 0.09 s (wall)
DIIS Errors:  Max 1.41E-02 RMS 2.42E-03

Current DIIS subspace size = 3
REM_GRID_RESTART_DIIS = 0

    3     -76.7294948783      2.42E-03  00000
Finding J and K together
 Job number = 22, Threshold = 1.00E-11
Integral type ranges set in mkLRange.C for JobNum: 22  <1-21|1-21>
 MakeJK  time:  CPU       0.09 s  wall       0.09 s
Fock build time:  0.09 s (CPU) 0.09 s (wall)
DIIS Errors:  Max 3.59E-03 RMS 5.34E-04

Current DIIS subspace size = 4
REM_GRID_RESTART_DIIS = 0

    4     -76.7311462108      5.34E-04  00000
Finding J and K together
 Job number = 22, Threshold = 1.00E-11
Integral type ranges set in mkLRange.C for JobNum: 22  <1-21|1-21>
 MakeJK  time:  CPU       0.09 s  wall       0.09 s
Fock build time:  0.09 s (CPU) 0.09 s (wall)
DIIS Errors:  Max 3.16E-03 RMS 3.65E-04

Current DIIS subspace size = 5
REM_GRID_RESTART_DIIS = 0

    5     -76.7311895117      3.65E-04  00000
Finding J and K together
 Job number = 22, Threshold = 1.00E-11
Integral type ranges set in mkLRange.C for JobNum: 22  <1-21|1-21>
 MakeJK  time:  CPU       0.09 s  wall       0.09 s
Fock build time:  0.09 s (CPU) 0.09 s (wall)
DIIS Errors:  Max 7.28E-04 RMS 7.10E-05

Current DIIS subspace size = 6
REM_GRID_RESTART_DIIS = 0

    6     -76.7312104053      7.10E-05  00000
Finding J and K together
 Job number = 22, Threshold = 1.00E-11
Integral type ranges set in mkLRange.C for JobNum: 22  <1-21|1-21>
 MakeJK  time:  CPU       0.09 s  wall       0.09 s
Fock build time:  0.09 s (CPU) 0.09 s (wall)
DIIS Errors:  Max 2.30E-04 RMS 2.28E-05

Current DIIS subspace size = 7
REM_GRID_RESTART_DIIS = 0

    7     -76.7312118387      2.28E-05  00000
Finding J and K together
 Job number = 22, Threshold = 1.00E-11
Integral type ranges set in mkLRange.C for JobNum: 22  <1-21|1-21>
 MakeJK  time:  CPU       0.09 s  wall       0.09 s
Fock build time:  0.09 s (CPU) 0.09 s (wall)
DIIS Errors:  Max 1.62E-04 RMS 1.60E-05

Current DIIS subspace size = 8
REM_GRID_RESTART_DIIS = 0

    8     -76.7312123162      1.60E-05  00000
Finding J and K together
 Job number = 22, Threshold = 1.00E-11
Integral type ranges set in mkLRange.C for JobNum: 22  <1-21|1-21>
 MakeJK  time:  CPU       0.09 s  wall       0.09 s
Fock build time:  0.09 s (CPU) 0.09 s (wall)
DIIS Errors:  Max 8.06E-05 RMS 8.18E-06

Current DIIS subspace size = 9
REM_GRID_RESTART_DIIS = 0

    9     -76.7312128383      8.18E-06  00000
Finding J and K together
 Job number = 22, Threshold = 1.00E-11
Integral type ranges set in mkLRange.C for JobNum: 22  <1-21|1-21>
 MakeJK  time:  CPU       0.09 s  wall       0.09 s
Fock build time:  0.09 s (CPU) 0.09 s (wall)
DIIS Errors:  Max 7.82E-06 RMS 1.34E-06

Current DIIS subspace size = 10
REM_GRID_RESTART_DIIS = 0

   10     -76.7312130118      1.34E-06  00000
Finding J and K together
 Job number = 22, Threshold = 1.00E-11
Integral type ranges set in mkLRange.C for JobNum: 22  <1-21|1-21>
 MakeJK  time:  CPU       0.08 s  wall       0.09 s
Fock build time:  0.09 s (CPU) 0.09 s (wall)
DIIS Errors:  Max 2.22E-06 RMS 3.77E-07

Current DIIS subspace size = 11
REM_GRID_RESTART_DIIS = 0

   11     -76.7312130142      3.77E-07  00000
Finding J and K together
 Job number = 22, Threshold = 1.00E-11
Integral type ranges set in mkLRange.C for JobNum: 22  <1-21|1-21>
 MakeJK  time:  CPU       0.09 s  wall       0.09 s
Fock build time:  0.09 s (CPU) 0.09 s (wall)
DIIS Errors:  Max 5.13E-07 RMS 6.78E-08

Current DIIS subspace size = 12
REM_GRID_RESTART_DIIS = 0

   12     -76.7312130143      6.78E-08  00000
Finding J and K together
 Job number = 22, Threshold = 1.00E-11
Integral type ranges set in mkLRange.C for JobNum: 22  <1-21|1-21>
 MakeJK  time:  CPU       0.09 s  wall       0.09 s
Fock build time:  0.09 s (CPU) 0.09 s (wall)
DIIS Errors:  Max 9.09E-08 RMS 1.33E-08

Current DIIS subspace size = 13
REM_GRID_RESTART_DIIS = 0

   13     -76.7312130143      1.33E-08  00000
Finding J and K together
 Job number = 22, Threshold = 1.00E-11
Integral type ranges set in mkLRange.C for JobNum: 22  <1-21|1-21>
 MakeJK  time:  CPU       0.09 s  wall       0.09 s
Fock build time:  0.09 s (CPU) 0.09 s (wall)
DIIS Errors:  Max 1.02E-08 RMS 2.32E-09

Current DIIS subspace size = 14
REM_GRID_RESTART_DIIS = 0

   14     -76.7312130143      2.32E-09  00000 Convergence criterion met
 ---------------------------------------
 SCF time:  CPU 1.26 s  wall 1.26 s
 SCF   energy in the final basis set = -76.73121301
 Total energy in the final basis set = -76.73121301
drvman_main.C: 73: calling DrvMan  Calculating analytic gradient of the SCF energy
drvman.C : 218: Calculating analytic gradient of the SCF energy
drvman.C: 244: calling SCF_Grad for normal SCF gradient
 Job number = 111, Threshold = 1.00E-11
Integral type ranges set in mkLRange.C for JobNum: 11  <1-21|22-22>
Finding J and K together
 ML is being used
 Job number = 122, Threshold = 1.00E-11
Integral type ranges set in mkLRange.C for JobNum: 22  <1-21|1-21>
 MakeJK  time:  CPU       0.42 s  wall       0.41 s
 Gradient of SCF Energy
            1           2           3           4
    1  -0.2656869   0.2834570  -0.0440895   0.0263194
    2   0.0187857  -0.0034488  -0.0106379  -0.0046991
    3  -0.0000818   0.0005238   0.0011547  -0.0015967
 Max gradient component =       2.835E-01
 RMS gradient           =       1.133E-01
drvman.C: 248: out of SCF_Grad for normal SCF gradient
 Gradient time:  CPU 0.43 s  wall 0.42 s
 ------------------------------------------------------------------------------
                     drvman        : Timing summary (seconds)
 ------------------------------------------------------------------------------
     job step          cpu (% of tot)      sys (% of tot)     wall (% of tot)
 ------------------------------------------------------------------------------
 ------------------------------------------------------------------------------
   Grand Totals     0.4280E+00          0.4000E-05          0.4162E+00
 ------------------------------------------------------------------------------
drvman_main.C: 77: out of DrvMan  Time for this dynamics step: 1.7 s (CPU) 1.7 s (wall)

TIME STEP #6 (t = 100.000 a.u. = 2.41888 fs)
--------------------------------------
 Instantaneous Temperature = 4346.1 K
 ----------------------------------------------------------------
             Standard Nuclear Orientation (Angstroms)
    I     Atom           X                Y                Z
 ----------------------------------------------------------------
    1      C      -2.7601410126     2.4982191585     0.0025822257
    2      C      -1.3877507719     2.4481888123    -0.0008316905
    3      H      -3.8935550468     2.2669865032     0.0561550763
    4      H      -0.2636065795     2.4295725904    -0.0769982962
 ----------------------------------------------------------------
 Nuclear Repulsion Energy =    22.1109996900 hartrees
 There are        7 alpha and        7 beta electrons

                       Distance Matrix (Angstroms)
             C (  1)   C (  2)   H (  3)
   C (  2)  1.373306
   H (  3)  1.158001  2.512994
   H (  4)  2.498746  1.126875  3.636027

 Applying Cartesian multipole field
    Component          Value
    ---------          -----
     (2,0,0)        1.00000E-11
     (0,2,0)        2.00000E-11
     (0,0,2)       -3.00000E-10
 Nucleus-field energy     =     0.0000000086 hartrees
 ENuRep (before)= 22.1109996900
 ENucField = 0.0000000086
 ENuRep (after) = 22.1109996986
 Job number = 2, Threshold = 1.00E-11
Integral type ranges set in mkLRange.C for JobNum: 2  <1-21|1-21>
Symmetry turned off temporarily
Symmetry turned back on
 Job number = 11, Threshold = 1.00E-11
Integral type ranges set in mkLRange.C for JobNum: 11  <1-21|22-22>
 Smallest overlap matrix eigenvalue = 3.23E-03
 Multipole matrices computed through 2nd order
 Guess from superposition of atomic densities
 Warning:  Energy on first SCF cycle will be non-variational
 SAD guess density has 14.000000 electrons
 SCF convergence criterion is 10**(-8)
 A restricted Hartree-Fock SCF calculation will be
 performed using Pulay DIIS extrapolation
 SCF converges when DIIS error is below 1.0E-08
Finding J and K together
 Job number = 22, Threshold = 1.00E-11
Integral type ranges set in mkLRange.C for JobNum: 22  <1-21|1-21>
 MakeJK  time:  CPU       0.08 s  wall       0.08 s
Fock build time:  0.08 s (CPU) 0.08 s (wall)
DIIS Errors:  Max 5.83E-01 RMS 9.65E-02

Current DIIS subspace size = 1
REM_GRID_RESTART_DIIS = 0

 ---------------------------------------
  Cycle       Energy         DIIS Error
 ---------------------------------------
    1     -76.7214704708      9.65E-02  00000
Finding J and K together
 Job number = 22, Threshold = 1.00E-11
Integral type ranges set in mkLRange.C for JobNum: 22  <1-21|1-21>
 MakeJK  time:  CPU       0.09 s  wall       0.09 s
Fock build time:  0.09 s (CPU) 0.09 s (wall)
DIIS Errors:  Max 4.49E-02 RMS 9.27E-03

Current DIIS subspace size = 2
REM_GRID_RESTART_DIIS = 0

    2     -76.7233613108      9.27E-03  00000
Finding J and K together
 Job number = 22, Threshold = 1.00E-11
Integral type ranges set in mkLRange.C for JobNum: 22  <1-21|1-21>
 MakeJK  time:  CPU       0.09 s  wall       0.09 s
Fock build time:  0.09 s (CPU) 0.09 s (wall)
DIIS Errors:  Max 1.41E-02 RMS 2.40E-03

Current DIIS subspace size = 3
REM_GRID_RESTART_DIIS = 0

    3     -76.7450813933      2.40E-03  00000
Finding J and K together
 Job number = 22, Threshold = 1.00E-11
Integral type ranges set in mkLRange.C for JobNum: 22  <1-21|1-21>
 MakeJK  time:  CPU       0.09 s  wall       0.09 s
Fock build time:  0.09 s (CPU) 0.09 s (wall)
DIIS Errors:  Max 2.87E-03 RMS 4.98E-04

Current DIIS subspace size = 4
REM_GRID_RESTART_DIIS = 0

    4     -76.7467097128      4.98E-04  00000
Finding J and K together
 Job number = 22, Threshold = 1.00E-11
Integral type ranges set in mkLRange.C for JobNum: 22  <1-21|1-21>
 MakeJK  time:  CPU       0.09 s  wall       0.09 s
Fock build time:  0.09 s (CPU) 0.09 s (wall)
DIIS Errors:  Max 1.21E-03 RMS 1.44E-04

Current DIIS subspace size = 5
REM_GRID_RESTART_DIIS = 0

    5     -76.7467666429      1.44E-04  00000
Finding J and K together
 Job number = 22, Threshold = 1.00E-11
Integral type ranges set in mkLRange.C for JobNum: 22  <1-21|1-21>
 MakeJK  time:  CPU       0.09 s  wall       0.09 s
Fock build time:  0.09 s (CPU) 0.09 s (wall)
DIIS Errors:  Max 9.35E-04 RMS 8.83E-05

Current DIIS subspace size = 6
REM_GRID_RESTART_DIIS = 0

    6     -76.7467703548      8.83E-05  00000
Finding J and K together
 Job number = 22, Threshold = 1.00E-11
Integral type ranges set in mkLRange.C for JobNum: 22  <1-21|1-21>
 MakeJK  time:  CPU       0.08 s  wall       0.09 s
Fock build time:  0.09 s (CPU) 0.09 s (wall)
DIIS Errors:  Max 3.02E-04 RMS 2.58E-05

Current DIIS subspace size = 7
REM_GRID_RESTART_DIIS = 0

    7     -76.7467719325      2.58E-05  00000
Finding J and K together
 Job number = 22, Threshold = 1.00E-11
Integral type ranges set in mkLRange.C for JobNum: 22  <1-21|1-21>
 MakeJK  time:  CPU       0.09 s  wall       0.09 s
Fock build time:  0.09 s (CPU) 0.09 s (wall)
DIIS Errors:  Max 1.64E-04 RMS 1.58E-05

Current DIIS subspace size = 8
REM_GRID_RESTART_DIIS = 0

    8     -76.7467724630      1.58E-05  00000
Finding J and K together
 Job number = 22, Threshold = 1.00E-11
Integral type ranges set in mkLRange.C for JobNum: 22  <1-21|1-21>
 MakeJK  time:  CPU       0.09 s  wall       0.09 s
Fock build time:  0.09 s (CPU) 0.09 s (wall)
DIIS Errors:  Max 7.09E-05 RMS 7.17E-06

Current DIIS subspace size = 9
REM_GRID_RESTART_DIIS = 0

    9     -76.7467729231      7.17E-06  00000
Finding J and K together
 Job number = 22, Threshold = 1.00E-11
Integral type ranges set in mkLRange.C for JobNum: 22  <1-21|1-21>
 MakeJK  time:  CPU       0.09 s  wall       0.09 s
Fock build time:  0.09 s (CPU) 0.09 s (wall)
DIIS Errors:  Max 8.40E-06 RMS 1.39E-06

Current DIIS subspace size = 10
REM_GRID_RESTART_DIIS = 0

   10     -76.7467730331      1.39E-06  00000
Finding J and K together
 Job number = 22, Threshold = 1.00E-11
Integral type ranges set in mkLRange.C for JobNum: 22  <1-21|1-21>
 MakeJK  time:  CPU       0.09 s  wall       0.09 s
Fock build time:  0.09 s (CPU) 0.09 s (wall)
DIIS Errors:  Max 2.23E-06 RMS 3.66E-07

Current DIIS subspace size = 11
REM_GRID_RESTART_DIIS = 0

   11     -76.7467730355      3.66E-07  00000
Finding J and K together
 Job number = 22, Threshold = 1.00E-11
Integral type ranges set in mkLRange.C for JobNum: 22  <1-21|1-21>
 MakeJK  time:  CPU       0.09 s  wall       0.09 s
Fock build time:  0.09 s (CPU) 0.09 s (wall)
DIIS Errors:  Max 3.97E-07 RMS 5.54E-08

Current DIIS subspace size = 12
REM_GRID_RESTART_DIIS = 0

   12     -76.7467730356      5.54E-08  00000
Finding J and K together
 Job number = 22, Threshold = 1.00E-11
Integral type ranges set in mkLRange.C for JobNum: 22  <1-21|1-21>
 MakeJK  time:  CPU       0.09 s  wall       0.09 s
Fock build time:  0.09 s (CPU) 0.09 s (wall)
DIIS Errors:  Max 6.83E-08 RMS 1.10E-08

Current DIIS subspace size = 13
REM_GRID_RESTART_DIIS = 0

   13     -76.7467730356      1.10E-08  00000
Finding J and K together
 Job number = 22, Threshold = 1.00E-11
Integral type ranges set in mkLRange.C for JobNum: 22  <1-21|1-21>
 MakeJK  time:  CPU       0.08 s  wall       0.09 s
Fock build time:  0.09 s (CPU) 0.09 s (wall)
DIIS Errors:  Max 1.04E-08 RMS 2.33E-09

Current DIIS subspace size = 14
REM_GRID_RESTART_DIIS = 0

   14     -76.7467730356      2.33E-09  00000 Convergence criterion met
 ---------------------------------------
 SCF time:  CPU 1.25 s  wall 1.25 s
 SCF   energy in the final basis set = -76.74677304
 Total energy in the final basis set = -76.74677304
drvman_main.C: 73: calling DrvMan  Calculating analytic gradient of the SCF energy
drvman.C : 218: Calculating analytic gradient of the SCF energy
drvman.C: 244: calling SCF_Grad for normal SCF gradient
 Job number = 111, Threshold = 1.00E-11
Integral type ranges set in mkLRange.C for JobNum: 11  <1-21|22-22>
Finding J and K together
 ML is being used
 Job number = 122, Threshold = 1.00E-11
Integral type ranges set in mkLRange.C for JobNum: 22  <1-21|1-21>
 MakeJK  time:  CPU       0.45 s  wall       0.44 s
 Gradient of SCF Energy
            1           2           3           4
    1  -0.2179099   0.2323722  -0.0624720   0.0480097
    2   0.0269673  -0.0051445  -0.0168228  -0.0050000
    3  -0.0018518   0.0029720   0.0025463  -0.0036665
 Max gradient component =       2.324E-01
 RMS gradient           =       9.521E-02
drvman.C: 248: out of SCF_Grad for normal SCF gradient
 Gradient time:  CPU 0.46 s  wall 0.45 s
 ------------------------------------------------------------------------------
                     drvman        : Timing summary (seconds)
 ------------------------------------------------------------------------------
     job step          cpu (% of tot)      sys (% of tot)     wall (% of tot)
 ------------------------------------------------------------------------------
 ------------------------------------------------------------------------------
   Grand Totals     0.4600E+00          0.4000E-05          0.4506E+00
 ------------------------------------------------------------------------------
drvman_main.C: 77: out of DrvMan  Time for this dynamics step: 1.7 s (CPU) 1.7 s (wall)

TIME STEP #7 (t = 120.000 a.u. = 2.90266 fs)
--------------------------------------
 Instantaneous Temperature = 5163.9 K
 ----------------------------------------------------------------
             Standard Nuclear Orientation (Angstroms)
    I     Atom           X                Y                Z
 ----------------------------------------------------------------
    1      C      -2.7385575887     2.5034970536     0.0030039743
    2      C      -1.4097822259     2.4457292999    -0.0009722334
    3      H      -3.8952516132     2.2374511861     0.0652328259
    4      H      -0.2565754221     2.4255500737    -0.0894242979
 ----------------------------------------------------------------
 Nuclear Repulsion Energy =    22.4347737874 hartrees
 There are        7 alpha and        7 beta electrons

                       Distance Matrix (Angstroms)
             C (  1)   C (  2)   H (  3)
   C (  2)  1.330036
   H (  3)  1.188526  2.495059
   H (  4)  2.484925  1.156770  3.646816

 Applying Cartesian multipole field
    Component          Value
    ---------          -----
     (2,0,0)        1.00000E-11
     (0,2,0)        2.00000E-11
     (0,0,2)       -3.00000E-10
 Nucleus-field energy     =     0.0000000086 hartrees
 ENuRep (before)= 22.4347737874
 ENucField = 0.0000000086
 ENuRep (after) = 22.4347737960
 Job number = 2, Threshold = 1.00E-11
Integral type ranges set in mkLRange.C for JobNum: 2  <1-21|1-21>
Symmetry turned off temporarily
Symmetry turned back on
 Job number = 11, Threshold = 1.00E-11
Integral type ranges set in mkLRange.C for JobNum: 11  <1-21|22-22>
 Smallest overlap matrix eigenvalue = 2.87E-03
 Multipole matrices computed through 2nd order
 Guess from superposition of atomic densities
 Warning:  Energy on first SCF cycle will be non-variational
 SAD guess density has 14.000000 electrons
 SCF convergence criterion is 10**(-8)
 A restricted Hartree-Fock SCF calculation will be
 performed using Pulay DIIS extrapolation
 SCF converges when DIIS error is below 1.0E-08
Finding J and K together
 Job number = 22, Threshold = 1.00E-11
Integral type ranges set in mkLRange.C for JobNum: 22  <1-21|1-21>
 MakeJK  time:  CPU       0.08 s  wall       0.08 s
Fock build time:  0.08 s (CPU) 0.08 s (wall)
DIIS Errors:  Max 5.77E-01 RMS 1.01E-01

Current DIIS subspace size = 1
REM_GRID_RESTART_DIIS = 0

 ---------------------------------------
  Cycle       Energy         DIIS Error
 ---------------------------------------
    1     -76.7620716310      1.01E-01  00000
Finding J and K together
 Job number = 22, Threshold = 1.00E-11
Integral type ranges set in mkLRange.C for JobNum: 22  <1-21|1-21>
 MakeJK  time:  CPU       0.09 s  wall       0.09 s
Fock build time:  0.09 s (CPU) 0.09 s (wall)
DIIS Errors:  Max 4.71E-02 RMS 9.43E-03

Current DIIS subspace size = 2
REM_GRID_RESTART_DIIS = 0

    2     -76.7371018420      9.43E-03  00000
Finding J and K together
 Job number = 22, Threshold = 1.00E-11
Integral type ranges set in mkLRange.C for JobNum: 22  <1-21|1-21>
 MakeJK  time:  CPU       0.09 s  wall       0.09 s
Fock build time:  0.09 s (CPU) 0.09 s (wall)
DIIS Errors:  Max 1.44E-02 RMS 2.43E-03

Current DIIS subspace size = 3
REM_GRID_RESTART_DIIS = 0

    3     -76.7587456335      2.43E-03  00000
Finding J and K together
 Job number = 22, Threshold = 1.00E-11
Integral type ranges set in mkLRange.C for JobNum: 22  <1-21|1-21>
 MakeJK  time:  CPU       0.09 s  wall       0.09 s
Fock build time:  0.09 s (CPU) 0.09 s (wall)
DIIS Errors:  Max 3.01E-03 RMS 6.06E-04

Current DIIS subspace size = 4
REM_GRID_RESTART_DIIS = 0

    4     -76.7603604572      6.06E-04  00000
Finding J and K together
 Job number = 22, Threshold = 1.00E-11
Integral type ranges set in mkLRange.C for JobNum: 22  <1-21|1-21>
 MakeJK  time:  CPU       0.09 s  wall       0.09 s
Fock build time:  0.09 s (CPU) 0.09 s (wall)
DIIS Errors:  Max 8.46E-04 RMS 1.10E-04

Current DIIS subspace size = 5
REM_GRID_RESTART_DIIS = 0

    5     -76.7604409302      1.10E-04  00000
Finding J and K together
 Job number = 22, Threshold = 1.00E-11
Integral type ranges set in mkLRange.C for JobNum: 22  <1-21|1-21>
 MakeJK  time:  CPU       0.09 s  wall       0.09 s
Fock build time:  0.09 s (CPU) 0.09 s (wall)
DIIS Errors:  Max 6.33E-04 RMS 5.61E-05

Current DIIS subspace size = 6
REM_GRID_RESTART_DIIS = 0

    6     -76.7604445191      5.61E-05  00000
Finding J and K together
 Job number = 22, Threshold = 1.00E-11
Integral type ranges set in mkLRange.C for JobNum: 22  <1-21|1-21>
 MakeJK  time:  CPU       0.09 s  wall       0.09 s
Fock build time:  0.09 s (CPU) 0.09 s (wall)
DIIS Errors:  Max 3.49E-04 RMS 2.81E-05

Current DIIS subspace size = 7
REM_GRID_RESTART_DIIS = 0

    7     -76.7604453223      2.81E-05  00000
Finding J and K together
 Job number = 22, Threshold = 1.00E-11
Integral type ranges set in mkLRange.C for JobNum: 22  <1-21|1-21>
 MakeJK  time:  CPU       0.09 s  wall       0.09 s
Fock build time:  0.09 s (CPU) 0.09 s (wall)
DIIS Errors:  Max 1.55E-04 RMS 1.43E-05

Current DIIS subspace size = 8
REM_GRID_RESTART_DIIS = 0

    8     -76.7604457732      1.43E-05  00000
Finding J and K together
 Job number = 22, Threshold = 1.00E-11
Integral type ranges set in mkLRange.C for JobNum: 22  <1-21|1-21>
 MakeJK  time:  CPU       0.09 s  wall       0.09 s
Fock build time:  0.09 s (CPU) 0.09 s (wall)
DIIS Errors:  Max 5.80E-05 RMS 5.97E-06

Current DIIS subspace size = 9
REM_GRID_RESTART_DIIS = 0

    9     -76.7604460969      5.97E-06  00000
Finding J and K together
 Job number = 22, Threshold = 1.00E-11
Integral type ranges set in mkLRange.C for JobNum: 22  <1-21|1-21>
 MakeJK  time:  CPU       0.08 s  wall       0.09 s
Fock build time:  0.09 s (CPU) 0.09 s (wall)
DIIS Errors:  Max 8.20E-06 RMS 1.27E-06

Current DIIS subspace size = 10
REM_GRID_RESTART_DIIS = 0

   10     -76.7604461610      1.27E-06  00000
Finding J and K together
 Job number = 22, Threshold = 1.00E-11
Integral type ranges set in mkLRange.C for JobNum: 22  <1-21|1-21>
 MakeJK  time:  CPU       0.09 s  wall       0.09 s
Fock build time:  0.09 s (CPU) 0.09 s (wall)
DIIS Errors:  Max 1.81E-06 RMS 3.02E-07

Current DIIS subspace size = 11
REM_GRID_RESTART_DIIS = 0

   11     -76.7604461628      3.02E-07  00000
Finding J and K together
 Job number = 22, Threshold = 1.00E-11
Integral type ranges set in mkLRange.C for JobNum: 22  <1-21|1-21>
 MakeJK  time:  CPU       0.09 s  wall       0.09 s
Fock build time:  0.09 s (CPU) 0.09 s (wall)
DIIS Errors:  Max 2.92E-07 RMS 4.33E-08

Current DIIS subspace size = 12
REM_GRID_RESTART_DIIS = 0

   12     -76.7604461629      4.33E-08  00000
Finding J and K together
 Job number = 22, Threshold = 1.00E-11
Integral type ranges set in mkLRange.C for JobNum: 22  <1-21|1-21>
 MakeJK  time:  CPU       0.09 s  wall       0.09 s
Fock build time:  0.09 s (CPU) 0.09 s (wall)
DIIS Errors:  Max 4.98E-08 RMS 8.67E-09

Current DIIS subspace size = 13
REM_GRID_RESTART_DIIS = 0

   13     -76.7604461629      8.67E-09  00000 Convergence criterion met
 ---------------------------------------
 SCF time:  CPU 1.16 s  wall 1.16 s
 SCF   energy in the final basis set = -76.76044616
 Total energy in the final basis set = -76.76044616
drvman_main.C: 73: calling DrvMan  Calculating analytic gradient of the SCF energy
drvman.C : 218: Calculating analytic gradient of the SCF energy
drvman.C: 244: calling SCF_Grad for normal SCF gradient
 Job number = 111, Threshold = 1.00E-11
Integral type ranges set in mkLRange.C for JobNum: 11  <1-21|22-22>
Finding J and K together
 ML is being used
 Job number = 122, Threshold = 1.00E-11
Integral type ranges set in mkLRange.C for JobNum: 22  <1-21|1-21>
 MakeJK  time:  CPU       0.43 s  wall       0.43 s
 Gradient of SCF Energy
[...]
 performed using Pulay DIIS extrapolation
 SCF converges when DIIS error is below 1.0E-08
Finding J and K together
 Job number = 22, Threshold = 1.00E-11
Integral type ranges set in mkLRange.C for JobNum: 22  <1-21|1-21>
 MakeJK  time:  CPU       0.08 s  wall       0.08 s
Fock build time:  0.08 s (CPU) 0.08 s (wall)
DIIS Errors:  Max 6.94E-01 RMS 9.39E-02

Current DIIS subspace size = 1
REM_GRID_RESTART_DIIS = 0

 ---------------------------------------
  Cycle       Energy         DIIS Error
 ---------------------------------------
    1     -76.6951277584      9.39E-02  00000
Finding J and K together
 Job number = 22, Threshold = 1.00E-11
Integral type ranges set in mkLRange.C for JobNum: 22  <1-21|1-21>
 MakeJK  time:  CPU       0.09 s  wall       0.09 s
Fock build time:  0.09 s (CPU) 0.09 s (wall)
DIIS Errors:  Max 4.70E-02 RMS 9.38E-03

Current DIIS subspace size = 2
REM_GRID_RESTART_DIIS = 0

    2     -76.6448229866      9.38E-03  00000
Finding J and K together
 Job number = 22, Threshold = 1.00E-11
Integral type ranges set in mkLRange.C for JobNum: 22  <1-21|1-21>
 MakeJK  time:  CPU       0.09 s  wall       0.09 s
Fock build time:  0.09 s (CPU) 0.09 s (wall)
DIIS Errors:  Max 1.11E-02 RMS 2.64E-03

Current DIIS subspace size = 3
REM_GRID_RESTART_DIIS = 0

    3     -76.6678333099      2.64E-03  00000
Finding J and K together
 Job number = 22, Threshold = 1.00E-11
Integral type ranges set in mkLRange.C for JobNum: 22  <1-21|1-21>
 MakeJK  time:  CPU       0.09 s  wall       0.09 s
Fock build time:  0.09 s (CPU) 0.09 s (wall)
DIIS Errors:  Max 1.08E-02 RMS 1.52E-03

Current DIIS subspace size = 4
REM_GRID_RESTART_DIIS = 0

    4     -76.6695683436      1.52E-03  00000
Finding J and K together
 Job number = 22, Threshold = 1.00E-11
Integral type ranges set in mkLRange.C for JobNum: 22  <1-21|1-21>
 MakeJK  time:  CPU       0.09 s  wall       0.09 s
Fock build time:  0.09 s (CPU) 0.09 s (wall)
DIIS Errors:  Max 5.72E-03 RMS 6.23E-04

Current DIIS subspace size = 5
REM_GRID_RESTART_DIIS = 0

    5     -76.6699542708      6.23E-04  00000
Finding J and K together
 Job number = 22, Threshold = 1.00E-11
Integral type ranges set in mkLRange.C for JobNum: 22  <1-21|1-21>
 MakeJK  time:  CPU       0.09 s  wall       0.09 s
Fock build time:  0.09 s (CPU) 0.09 s (wall)
DIIS Errors:  Max 2.05E-03 RMS 2.48E-04

Current DIIS subspace size = 6
REM_GRID_RESTART_DIIS = 0

    6     -76.6700877128      2.48E-04  00000
Finding J and K together
 Job number = 22, Threshold = 1.00E-11
Integral type ranges set in mkLRange.C for JobNum: 22  <1-21|1-21>
 MakeJK  time:  CPU       0.09 s  wall       0.09 s
Fock build time:  0.09 s (CPU) 0.09 s (wall)
DIIS Errors:  Max 1.59E-03 RMS 1.94E-04

Current DIIS subspace size = 7
REM_GRID_RESTART_DIIS = 0

    7     -76.6701887185      1.94E-04  00000
Finding J and K together
 Job number = 22, Threshold = 1.00E-11
Integral type ranges set in mkLRange.C for JobNum: 22  <1-21|1-21>
 MakeJK  time:  CPU       0.09 s  wall       0.09 s
Fock build time:  0.09 s (CPU) 0.09 s (wall)
DIIS Errors:  Max 2.48E-04 RMS 4.47E-05

Current DIIS subspace size = 8
REM_GRID_RESTART_DIIS = 0

    8     -76.6703489552      4.47E-05  00000
Finding J and K together
 Job number = 22, Threshold = 1.00E-11
Integral type ranges set in mkLRange.C for JobNum: 22  <1-21|1-21>
 MakeJK  time:  CPU       0.09 s  wall       0.09 s
Fock build time:  0.09 s (CPU) 0.09 s (wall)
DIIS Errors:  Max 4.56E-05 RMS 9.59E-06

Current DIIS subspace size = 9
REM_GRID_RESTART_DIIS = 0

    9     -76.6703546386      9.59E-06  00000
Finding J and K together
 Job number = 22, Threshold = 1.00E-11
Integral type ranges set in mkLRange.C for JobNum: 22  <1-21|1-21>
 MakeJK  time:  CPU       0.09 s  wall       0.09 s
Fock build time:  0.09 s (CPU) 0.09 s (wall)
DIIS Errors:  Max 1.75E-05 RMS 3.20E-06

Current DIIS subspace size = 10
REM_GRID_RESTART_DIIS = 0

   10     -76.6703547014      3.20E-06  00000
Finding J and K together
 Job number = 22, Threshold = 1.00E-11
Integral type ranges set in mkLRange.C for JobNum: 22  <1-21|1-21>
 MakeJK  time:  CPU       0.09 s  wall       0.09 s
Fock build time:  0.09 s (CPU) 0.09 s (wall)
DIIS Errors:  Max 6.47E-06 RMS 1.06E-06

Current DIIS subspace size = 11
REM_GRID_RESTART_DIIS = 0

   11     -76.6703547056      1.06E-06  00000
Finding J and K together
 Job number = 22, Threshold = 1.00E-11
Integral type ranges set in mkLRange.C for JobNum: 22  <1-21|1-21>
 MakeJK  time:  CPU       0.09 s  wall       0.09 s
Fock build time:  0.09 s (CPU) 0.09 s (wall)
DIIS Errors:  Max 1.47E-06 RMS 2.14E-07

Current DIIS subspace size = 12
REM_GRID_RESTART_DIIS = 0

   12     -76.6703547062      2.14E-07  00000
Finding J and K together
 Job number = 22, Threshold = 1.00E-11
Integral type ranges set in mkLRange.C for JobNum: 22  <1-21|1-21>
 MakeJK  time:  CPU       0.09 s  wall       0.09 s
Fock build time:  0.09 s (CPU) 0.09 s (wall)
DIIS Errors:  Max 8.13E-07 RMS 9.18E-08

Current DIIS subspace size = 13
REM_GRID_RESTART_DIIS = 0

   13     -76.6703547062      9.18E-08  00000
Finding J and K together
 Job number = 22, Threshold = 1.00E-11
Integral type ranges set in mkLRange.C for JobNum: 22  <1-21|1-21>
 MakeJK  time:  CPU       0.09 s  wall       0.09 s
Fock build time:  0.09 s (CPU) 0.09 s (wall)
DIIS Errors:  Max 5.65E-07 RMS 6.59E-08

Current DIIS subspace size = 14
REM_GRID_RESTART_DIIS = 0

   14     -76.6703547062      6.59E-08  00000
Finding J and K together
 Job number = 22, Threshold = 1.00E-11
Integral type ranges set in mkLRange.C for JobNum: 22  <1-21|1-21>
 MakeJK  time:  CPU       0.09 s  wall       0.09 s
Fock build time:  0.09 s (CPU) 0.09 s (wall)
DIIS Errors:  Max 3.26E-07 RMS 4.36E-08

Current DIIS subspace size = 15
REM_GRID_RESTART_DIIS = 0

   15     -76.6703547062      4.36E-08  00000
Finding J and K together
 Job number = 22, Threshold = 1.00E-11
Integral type ranges set in mkLRange.C for JobNum: 22  <1-21|1-21>
 MakeJK  time:  CPU       0.09 s  wall       0.09 s
Fock build time:  0.09 s (CPU) 0.09 s (wall)
DIIS Errors:  Max 1.48E-07 RMS 1.66E-08

Current DIIS subspace size = 15
REM_GRID_RESTART_DIIS = 0

   16     -76.6703547062      1.66E-08  00000
Finding J and K together
 Job number = 22, Threshold = 1.00E-11
Integral type ranges set in mkLRange.C for JobNum: 22  <1-21|1-21>
 MakeJK  time:  CPU       0.09 s  wall       0.09 s
Fock build time:  0.09 s (CPU) 0.09 s (wall)
DIIS Errors:  Max 3.24E-08 RMS 4.06E-09

Current DIIS subspace size = 15
REM_GRID_RESTART_DIIS = 0

   17     -76.6703547062      4.06E-09  00000 Convergence criterion met
 ---------------------------------------
 SCF time:  CPU 1.54 s  wall 1.54 s
 SCF   energy in the final basis set = -76.67035471
 Total energy in the final basis set = -76.67035471
drvman_main.C: 73: calling DrvMan  Calculating analytic gradient of the SCF energy
drvman.C : 218: Calculating analytic gradient of the SCF energy
drvman.C: 244: calling SCF_Grad for normal SCF gradient
 Job number = 111, Threshold = 1.00E-11
Integral type ranges set in mkLRange.C for JobNum: 11  <1-21|22-22>
Finding J and K together
 ML is being used
 Job number = 122, Threshold = 1.00E-11
Integral type ranges set in mkLRange.C for JobNum: 22  <1-21|1-21>
 MakeJK  time:  CPU       0.45 s  wall       0.44 s
 Gradient of SCF Energy
            1           2           3           4
    1  -0.3256330   0.2621604   0.0749305  -0.0114579
    2   0.1537891  -0.1263301  -0.0370982   0.0096392
    3   0.2373298  -0.1931599  -0.0513970   0.0072271
 Max gradient component =       3.256E-01
 RMS gradient           =       1.628E-01
drvman.C: 248: out of SCF_Grad for normal SCF gradient
 Gradient time:  CPU 0.46 s  wall 0.45 s
 ------------------------------------------------------------------------------
                     drvman        : Timing summary (seconds)
 ------------------------------------------------------------------------------
     job step          cpu (% of tot)      sys (% of tot)     wall (% of tot)
 ------------------------------------------------------------------------------
 ------------------------------------------------------------------------------
   Grand Totals     0.4600E+00          0.8000E-05          0.4494E+00
 ------------------------------------------------------------------------------
drvman_main.C: 77: out of DrvMan  Time for this dynamics step: 2.0 s (CPU) 2.0 s (wall)

TIME STEP #200 (t = 3980.000 a.u. = 96.27160 fs)
--------------------------------------
 Instantaneous Temperature = 1155.6 K
 ----------------------------------------------------------------
             Standard Nuclear Orientation (Angstroms)
    I     Atom           X                Y                Z
 ----------------------------------------------------------------
    1      C      -2.6321387988     2.7298740085     0.4183976361
    2      C      -1.4955624703     2.2400119651    -0.4277070283
    3      H      -3.4115460666     2.9280365982     0.9611447301
    4      H      -0.9860193859     1.4889753205    -0.8502999493
 ----------------------------------------------------------------
 Nuclear Repulsion Energy =    21.9087897503 hartrees
 There are        7 alpha and        7 beta electrons

                       Distance Matrix (Angstroms)
             C (  1)   C (  2)   H (  3)
   C (  2)  1.499221
   H (  3)  0.970216  2.464403
   H (  4)  2.420564  1.001137  3.351926

 Applying Cartesian multipole field
    Component          Value
    ---------          -----
     (2,0,0)        1.00000E-11
     (0,2,0)        2.00000E-11
     (0,0,2)       -3.00000E-10
 Nucleus-field energy     =     0.0000000045 hartrees
 ENuRep (before)= 21.9087897503
 ENucField = 0.0000000045
 ENuRep (after) = 21.9087897547
 Job number = 2, Threshold = 1.00E-11
Integral type ranges set in mkLRange.C for JobNum: 2  <1-21|1-21>
Symmetry turned off temporarily
Symmetry turned back on
 Job number = 11, Threshold = 1.00E-11
Integral type ranges set in mkLRange.C for JobNum: 11  <1-21|22-22>
 Smallest overlap matrix eigenvalue = 6.37E-03
 Multipole matrices computed through 2nd order
 Guess from superposition of atomic densities
 Warning:  Energy on first SCF cycle will be non-variational
 SAD guess density has 14.000000 electrons
 SCF convergence criterion is 10**(-8)
 A restricted Hartree-Fock SCF calculation will be
 performed using Pulay DIIS extrapolation
 SCF converges when DIIS error is below 1.0E-08
Finding J and K together
 Job number = 22, Threshold = 1.00E-11
Integral type ranges set in mkLRange.C for JobNum: 22  <1-21|1-21>
 MakeJK  time:  CPU       0.08 s  wall       0.08 s
Fock build time:  0.08 s (CPU) 0.08 s (wall)
DIIS Errors:  Max 6.97E-01 RMS 9.58E-02

Current DIIS subspace size = 1
REM_GRID_RESTART_DIIS = 0

 ---------------------------------------
  Cycle       Energy         DIIS Error
 ---------------------------------------
    1     -76.7178117854      9.58E-02  00000
Finding J and K together
 Job number = 22, Threshold = 1.00E-11
Integral type ranges set in mkLRange.C for JobNum: 22  <1-21|1-21>
 MakeJK  time:  CPU       0.09 s  wall       0.09 s
Fock build time:  0.09 s (CPU) 0.09 s (wall)
DIIS Errors:  Max 4.78E-02 RMS 9.58E-03

Current DIIS subspace size = 2
REM_GRID_RESTART_DIIS = 0

    2     -76.6376271102      9.58E-03  00000
Finding J and K together
 Job number = 22, Threshold = 1.00E-11
Integral type ranges set in mkLRange.C for JobNum: 22  <1-21|1-21>
 MakeJK  time:  CPU       0.09 s  wall       0.09 s
Fock build time:  0.09 s (CPU) 0.09 s (wall)
DIIS Errors:  Max 1.66E-02 RMS 3.30E-03

Current DIIS subspace size = 3
REM_GRID_RESTART_DIIS = 0

    3     -76.6607530212      3.30E-03  00000
Finding J and K together
 Job number = 22, Threshold = 1.00E-11
Integral type ranges set in mkLRange.C for JobNum: 22  <1-21|1-21>
 MakeJK  time:  CPU       0.09 s  wall       0.09 s
Fock build time:  0.09 s (CPU) 0.09 s (wall)
DIIS Errors:  Max 2.17E-02 RMS 3.24E-03

Current DIIS subspace size = 4
REM_GRID_RESTART_DIIS = 0

    4     -76.6617590095      3.24E-03  00000
Finding J and K together
 Job number = 22, Threshold = 1.00E-11
Integral type ranges set in mkLRange.C for JobNum: 22  <1-21|1-21>
 MakeJK  time:  CPU       0.09 s  wall       0.09 s
Fock build time:  0.09 s (CPU) 0.09 s (wall)
DIIS Errors:  Max 4.04E-03 RMS 4.25E-04

Current DIIS subspace size = 5
REM_GRID_RESTART_DIIS = 0

    5     -76.6634914252      4.25E-04  00000
Finding J and K together
 Job number = 22, Threshold = 1.00E-11
Integral type ranges set in mkLRange.C for JobNum: 22  <1-21|1-21>
 MakeJK  time:  CPU       0.09 s  wall       0.09 s
Fock build time:  0.09 s (CPU) 0.09 s (wall)
DIIS Errors:  Max 2.07E-03 RMS 2.44E-04

Current DIIS subspace size = 6
REM_GRID_RESTART_DIIS = 0

    6     -76.6636021549      2.44E-04  00000
Finding J and K together
 Job number = 22, Threshold = 1.00E-11
Integral type ranges set in mkLRange.C for JobNum: 22  <1-21|1-21>
 MakeJK  time:  CPU       0.09 s  wall       0.09 s
Fock build time:  0.09 s (CPU) 0.09 s (wall)
DIIS Errors:  Max 1.59E-03 RMS 1.94E-04

Current DIIS subspace size = 7
REM_GRID_RESTART_DIIS = 0

    7     -76.6636984565      1.94E-04  00000
Finding J and K together
 Job number = 22, Threshold = 1.00E-11
Integral type ranges set in mkLRange.C for JobNum: 22  <1-21|1-21>
 MakeJK  time:  CPU       0.09 s  wall       0.09 s
Fock build time:  0.09 s (CPU) 0.09 s (wall)
DIIS Errors:  Max 3.14E-04 RMS 5.53E-05

Current DIIS subspace size = 8
REM_GRID_RESTART_DIIS = 0

    8     -76.6638613274      5.53E-05  00000
Finding J and K together
 Job number = 22, Threshold = 1.00E-11
Integral type ranges set in mkLRange.C for JobNum: 22  <1-21|1-21>
 MakeJK  time:  CPU       0.09 s  wall       0.09 s
Fock build time:  0.09 s (CPU) 0.09 s (wall)
DIIS Errors:  Max 8.13E-05 RMS 1.69E-05

Current DIIS subspace size = 9
REM_GRID_RESTART_DIIS = 0

    9     -76.6638703099      1.69E-05  00000
Finding J and K together
 Job number = 22, Threshold = 1.00E-11
Integral type ranges set in mkLRange.C for JobNum: 22  <1-21|1-21>
 MakeJK  time:  CPU       0.09 s  wall       0.09 s
Fock build time:  0.09 s (CPU) 0.09 s (wall)
DIIS Errors:  Max 3.35E-05 RMS 5.81E-06

Current DIIS subspace size = 10
REM_GRID_RESTART_DIIS = 0

   10     -76.6638705640      5.81E-06  00000
Finding J and K together
 Job number = 22, Threshold = 1.00E-11
Integral type ranges set in mkLRange.C for JobNum: 22  <1-21|1-21>
 MakeJK  time:  CPU       0.09 s  wall       0.09 s
Fock build time:  0.09 s (CPU) 0.09 s (wall)
DIIS Errors:  Max 7.59E-06 RMS 1.25E-06

Current DIIS subspace size = 11
REM_GRID_RESTART_DIIS = 0

   11     -76.6638705822      1.25E-06  00000
Finding J and K together
 Job number = 22, Threshold = 1.00E-11
Integral type ranges set in mkLRange.C for JobNum: 22  <1-21|1-21>
 MakeJK  time:  CPU       0.09 s  wall       0.09 s
Fock build time:  0.09 s (CPU) 0.09 s (wall)
DIIS Errors:  Max 1.10E-06 RMS 2.34E-07

Current DIIS subspace size = 12
REM_GRID_RESTART_DIIS = 0

   12     -76.6638705830      2.34E-07  00000
Finding J and K together
 Job number = 22, Threshold = 1.00E-11
Integral type ranges set in mkLRange.C for JobNum: 22  <1-21|1-21>
 MakeJK  time:  CPU       0.09 s  wall       0.09 s
Fock build time:  0.09 s (CPU) 0.09 s (wall)
DIIS Errors:  Max 7.13E-07 RMS 8.80E-08

Current DIIS subspace size = 13
REM_GRID_RESTART_DIIS = 0

   13     -76.6638705831      8.80E-08  00000
Finding J and K together
 Job number = 22, Threshold = 1.00E-11
Integral type ranges set in mkLRange.C for JobNum: 22  <1-21|1-21>
 MakeJK  time:  CPU       0.09 s  wall       0.09 s
Fock build time:  0.09 s (CPU) 0.09 s (wall)
DIIS Errors:  Max 4.09E-07 RMS 4.45E-08

Current DIIS subspace size = 14
REM_GRID_RESTART_DIIS = 0

   14     -76.6638705831      4.45E-08  00000
Finding J and K together
 Job number = 22, Threshold = 1.00E-11
Integral type ranges set in mkLRange.C for JobNum: 22  <1-21|1-21>
 MakeJK  time:  CPU       0.09 s  wall       0.09 s
Fock build time:  0.09 s (CPU) 0.09 s (wall)
DIIS Errors:  Max 2.54E-07 RMS 3.05E-08

Current DIIS subspace size = 15
REM_GRID_RESTART_DIIS = 0

   15     -76.6638705831      3.05E-08  00000
Finding J and K together
 Job number = 22, Threshold = 1.00E-11
Integral type ranges set in mkLRange.C for JobNum: 22  <1-21|1-21>
 MakeJK  time:  CPU       0.09 s  wall       0.09 s
Fock build time:  0.09 s (CPU) 0.09 s (wall)
DIIS Errors:  Max 1.46E-07 RMS 1.92E-08

Current DIIS subspace size = 15
REM_GRID_RESTART_DIIS = 0

   16     -76.6638705831      1.92E-08  00000
Finding J and K together
 Job number = 22, Threshold = 1.00E-11
Integral type ranges set in mkLRange.C for JobNum: 22  <1-21|1-21>
 MakeJK  time:  CPU       0.09 s  wall       0.09 s
Fock build time:  0.09 s (CPU) 0.09 s (wall)
DIIS Errors:  Max 3.28E-08 RMS 4.34E-09

Current DIIS subspace size = 15
REM_GRID_RESTART_DIIS = 0

   17     -76.6638705831      4.34E-09  00000 Convergence criterion met
 ---------------------------------------
 SCF time:  CPU 1.56 s  wall 1.56 s
 SCF   energy in the final basis set = -76.66387058
 Total energy in the final basis set = -76.66387058
drvman_main.C: 73: calling DrvMan  Calculating analytic gradient of the SCF energy
drvman.C : 218: Calculating analytic gradient of the SCF energy
drvman.C: 244: calling SCF_Grad for normal SCF gradient
 Job number = 111, Threshold = 1.00E-11
Integral type ranges set in mkLRange.C for JobNum: 11  <1-21|22-22>
Finding J and K together
 ML is being used
 Job number = 122, Threshold = 1.00E-11
Integral type ranges set in mkLRange.C for JobNum: 22  <1-21|1-21>
 MakeJK  time:  CPU       0.42 s  wall       0.41 s
 Gradient of SCF Energy
            1           2           3           4
    1  -0.3300543   0.2872959   0.0778288  -0.0350703
    2   0.1567390  -0.1625232  -0.0385090   0.0442933
    3   0.2434347  -0.2154416  -0.0554925   0.0274993
 Max gradient component =       3.301E-01
 RMS gradient           =       1.739E-01
drvman.C: 248: out of SCF_Grad for normal SCF gradient
 Gradient time:  CPU 0.43 s  wall 0.42 s
 ------------------------------------------------------------------------------
                     drvman        : Timing summary (seconds)
 ------------------------------------------------------------------------------
     job step          cpu (% of tot)      sys (% of tot)     wall (% of tot)
 ------------------------------------------------------------------------------
 ------------------------------------------------------------------------------
   Grand Totals     0.4280E+00          0.5000E-05          0.4183E+00
 ------------------------------------------------------------------------------
drvman_main.C: 77: out of DrvMan  Time for this dynamics step: 2.0 s (CPU) 2.0 s (wall)

=============== TIME STEPS COMPLETED ==================

Step-to-Step energy fluctuations, |E(n) - E(n-1)|
Mean: -2.049e-06   Max: 1.742e-03   RMS: 5.501e-04
Overall energy fluctuations, |E(n) - E(0)|
Mean: -7.691e-04   Max: 2.727e-03   RMS: 7.453e-04   RMS(dE)/RMS(dV): 1.789e-02
Kinetic energy fluctuations, |T(n) - V(0)|
Mean: 6.522e-02   Max: 1.478e-01   RMS: 4.106e-02
Potential energy fluctuations, |V(n) - V(0)|
Mean: -6.598e-02   Max: 1.504e-01   RMS: 4.165e-02


 JobOver = TRUE
Archival summary:
1\1\qciep03\JobtypUnspecified\HF\6-31G*\22\jcartus\SatApr2118:10:062018SatApr2118:10:062018\0\\#,JobtypUnspecified,HF,6-31G*,\\0,1\C\H,1,0.970216\C,1,1.49922,2,172.508\H,3,1.00114,1,150.365,2,-9.72262,0\\HF=-76.6638706\\@

 Total job time:  344.94s(wall), 346.20s(cpu) 
 Sat Apr 21 18:10:06 2018

        *************************************************************
        *                                                           *
        *  Thank you very much for using Q-Chem.  Have a nice day.  *
        *                                                           *
        *************************************************************


*** MISSION COMPLETED -- STARFLEET OUT ***

0 sent ACK to 0 
now end server 0 ... 
