Process 0 of 1 is on qciep03 - thread support 0
initial socket setup ...start
initial socket setup ...done 
now start server 0 ... 
qciep03.tugraz.at 127.0.1
Q-Chem Developer Version! Running on 127.0.1.*
                  Welcome to Q-Chem
     A Quantum Leap Into The Future Of Chemistry


 Q-Chem 5.0, Q-Chem, Inc., Pleasanton, CA (2017)

 Yihan Shao,  Zhengting Gan,  E. Epifanovsky,  A. T. B. Gilbert,  M. Wormit,  
 J. Kussmann,  A. W. Lange,  A. Behn,  Jia Deng,  Xintian Feng,  D. Ghosh,  
 M. Goldey,  P. R. Horn,  L. D. Jacobson,  I. Kaliman,  T. Kus,  A. Landau,  
 Jie Liu,  E. I. Proynov,  R. M. Richard,  R. P. Steele,  E. J. Sundstrom,  
 H. L. Woodcock III,  P. M. Zimmerman,  D. Zuev,  B. Albrecht,  E. Alguire,  
 S. A. Baeppler,  D. Barton,  Z. Benda,  Y. A. Bernard,  E. J. Berquist,  
 K. B. Bravaya,  H. Burton,  D. Casanova,  Chun-Min Chang,  Yunqing Chen,  
 A. Chien,  K. D. Closser,  M. P. Coons,  S. Dasgupta,  A. L. Dempwolff,  
 M. Diedenhofen,  Hainam Do,  R. G. Edgar,  Po-Tung Fang,  S. Fatehi,  
 Qingguo Feng,  J. Fosso-Tande,  Qinghui Ge,  A. Ghysels,  G. Gidofalvi,  
 J. Gomes,  J. Gonthier,  A. Gunina,  M. W. D. Hanson-Heine,  
 P. H. P. Harbach,  A. W. Hauser,  J. E. Herr,  E. G. Hohenstein,  
 Z. C. Holden,  Kerwin Hui,  T.-C. Jagau,  Hyunjun Ji,  B. Kaduk,  
 K. Khistyaev,  Jaehoon Kim,  P. Klunzinger,  K. Koh,  D. Kosenkov,  
 L. Koulias,  T. Kowalczyk,  C. M. Krauter,  A. Kunitsa,  Ka Un Lao,  
 A. Laurent,  K. V. Lawler,  Joonho Lee,  D. Lefrancois,  S. Lehtola,  
 D. S. Levine,  Yi-Pei Li,  You-Sheng Lin,  Fenglai Liu,  E. Livshits,  
 A. Luenser,  P. Manohar,  E. Mansoor,  S. F. Manzer,  Shan-Ping Mao,  
 Yuezhi Mao,  N. Mardirossian,  A. V. Marenich,  T. Markovich,  
 L. A. Martinez-Martinez,  S. A. Maurer,  N. J. Mayhall,  S. C. McKenzie,  
 J.-M. Mewes,  A. F. Morrison,  J. W. Mullinax,  K. Nanda,  
 T. S. Nguyen-Beck,  R. Olivares-Amaya,  J. A. Parkhill,  T. M. Perrine,  
 F. Plasser,  S. Prager,  A. Prociuk,  E. Ramos,  D. R. Rehn,  F. Rob,  
 M. Schneider,  N. Sergueev,  S. M. Sharada,  S. Sharma,  D. W. Small,  
 T. Stauch,  T. Stein,  Yu-Chuan Su,  A. J. W. Thom,  A. Tkatchenko,  
 T. Tsuchimochi,  L. Vogt,  O. Vydrov,  M. A. Watson,  J. Wenzel,  
 M. de Wergifosse,  T. A. Wesolowski,  A. White,  J. Witte,  A. Yamada,  
 Jun Yang,  K. Yao,  S. Yeganeh,  S. R. Yost,  Zhi-Qiang You,  A. Zech,  
 Igor Ying Zhang,  Xing Zhang,  Yan Zhao,  Ying Zhu,  B. R. Brooks,  
 G. K. L. Chan,  C. J. Cramer,  M. S. Gordon,  W. J. Hehre,  A. Klamt,  
 M. W. Schmidt,  C. D. Sherrill,  D. G. Truhlar,  A. Aspuru-Guzik,  R. Baer,  
 A. T. Bell,  N. A. Besley,  Jeng-Da Chai,  R. A. DiStasio Jr.,  A. Dreuw,  
 B. D. Dunietz,  T. R. Furlani,  Chao-Ping Hsu,  Yousung Jung,  Jing Kong,  
 D. S. Lambrecht,  WanZhen Liang,  C. Ochsenfeld,  V. A. Rassolov,  
 L. V. Slipchenko,  J. E. Subotnik,  T. Van Voorhis,  J. M. Herbert,  
 A. I. Krylov,  P. M. W. Gill,  M. Head-Gordon

 Contributors to earlier versions of Q-Chem not listed above: 
 R. D. Adamson,  B. Austin,  J. Baker,  G. J. O. Beran,  K. Brandhorst,  
 S. T. Brown,  E. F. C. Byrd,  A. K. Chakraborty,  C.-L. Cheng,  
 Siu Hung Chien,  D. M. Chipman,  D. L. Crittenden,  H. Dachsel,  
 R. J. Doerksen,  A. D. Dutoi,  L. Fusti-Molnar,  W. A. Goddard III,  
 A. Golubeva-Zadorozhnaya,  S. R. Gwaltney,  G. Hawkins,  A. Heyden,  
 S. Hirata,  G. Kedziora,  F. J. Keil,  C. Kelley,  Jihan Kim,  R. A. King,  
 R. Z. Khaliullin,  P. P. Korambath,  W. Kurlancheek,  A. M. Lee,  M. S. Lee,  
 S. V. Levchenko,  Ching Yeh Lin,  D. Liotard,  R. C. Lochan,  I. Lotan,  
 P. E. Maslen,  N. Nair,  D. P. O'Neill,  D. Neuhauser,  E. Neuscamman,  
 C. M. Oana,  R. Olson,  B. Peters,  R. Peverati,  P. A. Pieniazek,  
 Y. M. Rhee,  J. Ritchie,  M. A. Rohrdanz,  E. Rosta,  N. J. Russ,  
 H. F. Schaefer III,  N. E. Schultz,  N. Shenvi,  A. C. Simmonett,  A. Sodt,  
 D. Stuck,  K. S. Thanthiriwatte,  V. Vanovschi,  Tao Wang,  A. Warshel,  
 C. F. Williams,  Q. Wu,  X. Xu,  W. Zhang

 Please cite Q-Chem as follows:
 Y. Shao et al., Mol. Phys. 113, 184-215 (2015)
 DOI: 10.1080/00268976.2014.952696

 Q-Chem 5.0.2 for Intel X86 EM64T Linux

 Parts of Q-Chem use Armadillo 5.200.1 (Boston Tea Smuggler).
 http://arma.sourceforge.net/

 Q-Chem begins on Thu Feb  1 12:08:36 2018  


Host: 0

     Scratch files written to /home/jcartus/scratch/33_HF-mOH.dir//
 Using version located at /usr/local/qchem/bin/qchem

 Parallel job on  1  processors

Total Memory Limit in MB = 2000
Mega-Array Size in MB = 192

Checking the input file for inconsistencies... 	...done.
Finally everything over in PARseQInput

--------------------------------------------------------------
User input:
--------------------------------------------------------------
$rem
SCF_PRINT                     1
BASIS                         6-311++g**
SCF_SAVE_MATRICES             1
SCF_CONVERGENCE               5
SCF_FINAL_PRINT               1
METHOD                        hf
JOBTYPE                       sp
$end

$molecule
0 1
F    0.324738231    -9.6172e-05    0.367513243
H    0.106356599    -1.5606e-05    1.274535595
O    -0.167235591    0.000145557    2.943064329
H    -1.010969151    -3.9884e-05    3.399033154
C    0.88199533    1.8821e-05    3.906791538
H    1.813385323    5.9838e-05    3.351066264
H    0.849525704    0.88916881    4.534616489
H    0.849495114    -0.889261044    4.534430809
$end


--------------------------------------------------------------
 ----------------------------------------------------------------
             Standard Nuclear Orientation (Angstroms)
    I     Atom           X                Y                Z
 ----------------------------------------------------------------
    1      F       2.0313441224    -0.1787983545    -0.0000105013
    2      H       1.1490224892     0.1243330130     0.0000052404
    3      O      -0.4861783556     0.5544016622     0.0000594610
    4      H      -0.8603604088     1.4374541135    -0.0002290570
    5      C      -1.5447595573    -0.3990455095    -0.0000130981
    6      H      -1.0795524756    -1.3787905005     0.0001442374
    7      H      -2.1667398548    -0.3072932079     0.8891034147
    8      H      -2.1664826635    -0.3074584681    -0.8893264230
 ----------------------------------------------------------------
 Molecular Point Group                 C1    NOp =  1
 Largest Abelian Subgroup              C1    NOp =  1
 Nuclear Repulsion Energy =    77.3853250284 hartrees
 There are       14 alpha and       14 beta electrons
 Requested basis set is 6-311++G(d,p)
 There are 43 shells and 101 basis functions

 Total QAlloc Memory Limit   2000 MB
 Mega-Array Size       188 MB
 MEM_STATIC part       192 MB

finished with qalloc call

                       Distance Matrix (Angstroms)
             F (  1)   H (  2)   O (  3)   H (  4)   C (  5)   H (  6)
   H (  2)  0.932942
   O (  3)  2.622118  1.690811
   H (  4)  3.312737  2.400397  0.959059
   C (  5)  3.582880  2.744155  1.424660  1.959881
   H (  6)  3.334315  2.688108  2.022208  2.824762  1.084582
   H (  7)  4.293127  3.459924  2.087392  2.354078  1.088947  1.766446
   H (  8)  4.292923  3.459759  2.087399  2.353969  1.088947  1.766445
             H (  7)
   H (  8)  1.778430

 Job number = 2, Threshold = 1.00E-08
Integral type ranges set in mkLRange.C for JobNum: 2  <1-21|1-21>
Symmetry turned off temporarily
 Using the largest function pair in Schwarz integrals
Total number of integrals generated =           63643
Symmetry turned back on
 A cutoff of  1.0D-08 yielded    882 shell pairs
 There are      4816 function pairs (      5089 Cartesian)
 Job number = 11, Threshold = 1.00E-08
Integral type ranges set in mkLRange.C for JobNum: 11  <1-21|22-22>
Total number of integrals generated =           40712
 Smallest overlap matrix eigenvalue = 6.84E-04
 Multipole matrices computed through 2nd order

 Scale SEOQF with 1.000000e-01/1.000000e-01/1.000000e-01

 Standard Electronic Orientation quadrupole field applied
 Nucleus-field energy     =     0.0000000027 hartrees
 ENuRep (before)= 77.3853250284
 ENucField = 0.0000000027
 ENuRep (after) = 77.3853250311
 Guess from superposition of atomic densities
 Warning:  Energy on first SCF cycle will be non-variational
 SAD guess density has 28.000000 electrons

 ==================================================
    GEN_SCFMAN: A general SCF calculation manager  
                                                   
    Authors:                                       
        -- Eric Jon Sundstrom 2008-2014            
        -- Paul Horn 2010-2015                     
        -- Yuezhi Mao 2012-                        
        -- Dmitri Zuev 2014                        
        -- Alec White 2015-                        
        -- David Stuck 2015                        
        -- Shaama M.S. 2015                        
        -- Shane Yost 2015-                         
        -- Joonho Lee 2016-                        
        -- David Small 2016-                       
        -- Daniel Levine 2016-                     
        -- Susi Lehtola 2017-                      
        -- Hugh Burton 2017-                       
 ==================================================
 Hartree-Fock
Finding J and K together
 Job number = 22, Threshold = 1.00E-08
Integral type ranges set in mkLRange.C for JobNum: 22  <1-21|1-21>
 MakeJK  time:  CPU       0.86 s  wall       0.98 s
 HF Exchange:              -24.87386677702258
 One-Electron:             -448.31258709785925
 Total Coulomb:            180.54496085021594
 Nuclear repulsion:         77.38532503110720
 A restricted SCF calculation will be
 performed using DIIS
 SCF converges when DIIS error is below 1.0e-05
 ---------------------------------------
  Cycle       Energy         DIIS error
 ---------------------------------------
Finding J and K together
 Job number = 22, Threshold = 1.00E-08
Integral type ranges set in mkLRange.C for JobNum: 22  <1-21|1-21>
 MakeJK  time:  CPU       2.08 s  wall       2.38 s
 HF Exchange:              -25.40921848368838
 One-Electron:             -452.05376878312967
 Total Coulomb:            184.98318341390538
 Nuclear repulsion:         77.38532503110720
    1    -215.2561679936      5.58e-02  
Finding J and K together
 Job number = 22, Threshold = 1.00E-08
Integral type ranges set in mkLRange.C for JobNum: 22  <1-21|1-21>
 MakeJK  time:  CPU       2.16 s  wall       2.17 s
 HF Exchange:              -25.15769546350246
 One-Electron:             -450.17148495320362
 Total Coulomb:            182.80697612117874
 Nuclear repulsion:         77.38532503110720
    2    -215.0944788218      6.91e-03  
Finding J and K together
 Job number = 22, Threshold = 1.00E-08
Integral type ranges set in mkLRange.C for JobNum: 22  <1-21|1-21>
 MakeJK  time:  CPU       2.14 s  wall       2.15 s
 HF Exchange:              -25.30114251904714
 One-Electron:             -451.12559637754924
 Total Coulomb:            183.89498668677885
 Nuclear repulsion:         77.38532503110720
    3    -215.1368792644      3.72e-03  
Finding J and K together
 Job number = 22, Threshold = 1.00E-08
Integral type ranges set in mkLRange.C for JobNum: 22  <1-21|1-21>
 MakeJK  time:  CPU       2.10 s  wall       2.10 s
 HF Exchange:              -25.29128014473936
 One-Electron:             -451.01002088150267
 Total Coulomb:            183.76911838879806
 Nuclear repulsion:         77.38532503110720
    4    -215.1464271787      5.57e-04  
Finding J and K together
 Job number = 22, Threshold = 1.00E-08
Integral type ranges set in mkLRange.C for JobNum: 22  <1-21|1-21>
 MakeJK  time:  CPU       2.12 s  wall       2.25 s
 HF Exchange:              -25.29471167427614
 One-Electron:             -451.02979911538671
 Total Coulomb:            183.79230547977988
 Nuclear repulsion:         77.38532503110720
    5    -215.1468576063      1.07e-04  
Finding J and K together
 Job number = 22, Threshold = 1.00E-08
Integral type ranges set in mkLRange.C for JobNum: 22  <1-21|1-21>
 MakeJK  time:  CPU       2.05 s  wall       3.06 s
 HF Exchange:              -25.29424059889343
 One-Electron:             -451.02274376857400
 Total Coulomb:            183.78477733932081
 Nuclear repulsion:         77.38532503110720
    6    -215.1468802788      2.75e-05  
Finding J and K together
 Job number = 22, Threshold = 1.00E-08
Integral type ranges set in mkLRange.C for JobNum: 22  <1-21|1-21>
 MakeJK  time:  CPU       2.10 s  wall       2.32 s
 HF Exchange:              -25.29444300980478
 One-Electron:             -451.02448053804767
 Total Coulomb:            183.78671632599574
 Nuclear repulsion:         77.38532503110720
    7    -215.1468819970      1.04e-05  
    8    -215.1468821907      2.80e-06  Convergence criterion met
 ---------------------------------------
 SCF time:   CPU 15.89s  wall 18.00s 
 Total energy in the final basis set =     -215.1468821907
 HF Exchange:              -25.29444300980478
 One-Electron:             -451.02448053804767
 Total Coulomb:            183.78671632599574
 Nuclear repulsion:         77.38532503110720
Wall  1 = 18
Clock 1 = 15.93415355682373
 ==================================================
                  Done GEN_SCFMAN                  
 ==================================================

Symmetry turned off temporarily

 --------------------------------------------------------------

                    Orbital Energies (a.u.)
 --------------------------------------------------------------

 Alpha MOs
 -- Occupied --
-26.241 -20.600 -11.299  -1.547  -1.402  -0.960  -0.754  -0.709
 -0.654  -0.626  -0.598  -0.598  -0.542  -0.491
 -- Virtual --
  0.030   0.055   0.064   0.079   0.110   0.122   0.142   0.151
  0.173   0.258   0.278   0.279   0.288   0.291   0.331   0.337
  0.361   0.367   0.376   0.406   0.437   0.493   0.554   0.565
  0.600   0.695   0.747   0.778   0.825   0.843   0.863   1.063
  1.185   1.207   1.292   1.328   1.514   1.533   1.572   1.595
  1.629   1.690   1.697   1.773   1.784   1.785   1.834   1.843
  1.947   1.948   2.074   2.195   2.271   2.330   2.396   2.480
  2.697   2.722   2.750   2.771   2.836   2.888   2.921   2.982
  3.186   3.318   3.415   3.554   3.688   4.143   4.171   4.274
  4.274   4.305   4.403   4.528   4.574   5.330   5.531   5.936
  6.178   6.944   6.957   7.433  25.059  51.571  68.806
 --------------------------------------------------------------

          Ground-State Mulliken Net Atomic Charges

     Atom                 Charge (a.u.)
  ----------------------------------------
      1 F                    -0.366950
      2 H                     0.375063
      3 O                    -0.481202
      4 H                     0.300530
      5 C                    -0.232767
      6 H                     0.155225
      7 H                     0.125050
      8 H                     0.125050
  ----------------------------------------
  Sum of atomic charges =    -0.000000

 -----------------------------------------------------------------
                    Cartesian Multipole Moments
 -----------------------------------------------------------------
    Charge (ESU x 10^10)
                -0.0000
    Dipole Moment (Debye)
         X      -4.8003      Y       1.0862      Z      -0.0006
       Tot       4.9217
    Quadrupole Moments (Debye-Ang)
        XX     -22.5202     XY       0.0331     YY     -15.3994
        XZ       0.0006     YZ      -0.0010     ZZ     -19.2695
    Octopole Moments (Debye-Ang^2)
       XXX     -10.1460    XXY       3.2325    XYY      -0.1372
       YYY       6.7520    XXZ      -0.0001    XYZ       0.0006
       YYZ      -0.0012    XZZ       2.4249    YZZ       0.4019
       ZZZ      -0.0006
    Hexadecapole Moments (Debye-Ang^3)
      XXXX    -304.5382   XXXY      -1.6225   XXYY     -51.4632
      XYYY      -8.5508   YYYY     -34.7569   XXXZ      -0.0006
      XXYZ      -0.0004   XYYZ       0.0011   YYYZ      -0.0026
      XXZZ     -48.1798   XYZZ      -1.2388   YYZZ     -12.1712
      XZZZ       0.0007   YZZZ      -0.0004   ZZZZ     -22.7836
 -----------------------------------------------------------------
 Mayer SCF Bond Order, atomic valence on the diagonal:

            1           2           3           4           5           6
    1   1.0400481   0.9883910   0.0461334   0.0009728   0.0050343   0.0004443
    2   0.9883910   0.9381117  -0.0578250  -0.0012769   0.0064201   0.0046669
    3   0.0461334  -0.0578250   1.5573393   0.9164523   0.7835089  -0.0563240
    4   0.0009728  -0.0012769   0.9164523   0.9340685   0.0148892   0.0032757
    5   0.0050343   0.0064201   0.7835089   0.0148892   3.7928153   1.0001876
    6   0.0004443   0.0046669  -0.0563240   0.0032757   1.0001876   0.9220207
    7  -0.0004623  -0.0011311  -0.0373012  -0.0001242   0.9913885  -0.0151172
    8  -0.0004654  -0.0011333  -0.0373052  -0.0001203   0.9913866  -0.0151126
            7           8
    1  -0.0004623  -0.0004654
    2  -0.0011311  -0.0011333
    3  -0.0373012  -0.0373052
    4  -0.0001242  -0.0001203
    5   0.9913885   0.9913866
    6  -0.0151172  -0.0151126
    7   0.9129577  -0.0242948
    8  -0.0242948   0.9129551


 JobOver = TRUE
Archival summary:
1\1\qciep03\SP\HF\BasisUnspecified\1115\jcartus\ThuFeb112:08:542018ThuFeb112:08:542018\0\\#,HF,BasisUnspecified,\\0,1\O\H,1,0.959059\C,1,1.42466,2,109.045\H,3,1.08458,1,106.609,2,179.99,0\H,3,1.08895,1,111.591,2,61.4165,0\H,3,1.08895,1,111.591,2,-61.4361,0\H,1,1.69081,2,127.7,3,179.975,0\F,7,0.932942,1,175.775,2,-179.989,0\\HF=-215.146882\\@

 Total job time:  18.09s(wall), 16.18s(cpu) 
 Thu Feb  1 12:08:54 2018

        *************************************************************
        *                                                           *
        *  Thank you very much for using Q-Chem.  Have a nice day.  *
        *                                                           *
        *************************************************************


*** MISSION COMPLETED -- STARFLEET OUT ***

0 sent ACK to 0 
now end server 0 ... 
