Process 0 of 1 is on qciep03 - thread support 0
initial socket setup ...start
initial socket setup ...done 
now start server 0 ... 
qciep03.tugraz.at 127.0.1
Q-Chem Developer Version! Running on 127.0.1.*
                  Welcome to Q-Chem
     A Quantum Leap Into The Future Of Chemistry


 Q-Chem 5.0, Q-Chem, Inc., Pleasanton, CA (2017)

 Yihan Shao,  Zhengting Gan,  E. Epifanovsky,  A. T. B. Gilbert,  M. Wormit,  
 J. Kussmann,  A. W. Lange,  A. Behn,  Jia Deng,  Xintian Feng,  D. Ghosh,  
 M. Goldey,  P. R. Horn,  L. D. Jacobson,  I. Kaliman,  T. Kus,  A. Landau,  
 Jie Liu,  E. I. Proynov,  R. M. Richard,  R. P. Steele,  E. J. Sundstrom,  
 H. L. Woodcock III,  P. M. Zimmerman,  D. Zuev,  B. Albrecht,  E. Alguire,  
 S. A. Baeppler,  D. Barton,  Z. Benda,  Y. A. Bernard,  E. J. Berquist,  
 K. B. Bravaya,  H. Burton,  D. Casanova,  Chun-Min Chang,  Yunqing Chen,  
 A. Chien,  K. D. Closser,  M. P. Coons,  S. Dasgupta,  A. L. Dempwolff,  
 M. Diedenhofen,  Hainam Do,  R. G. Edgar,  Po-Tung Fang,  S. Fatehi,  
 Qingguo Feng,  J. Fosso-Tande,  Qinghui Ge,  A. Ghysels,  G. Gidofalvi,  
 J. Gomes,  J. Gonthier,  A. Gunina,  M. W. D. Hanson-Heine,  
 P. H. P. Harbach,  A. W. Hauser,  J. E. Herr,  E. G. Hohenstein,  
 Z. C. Holden,  Kerwin Hui,  T.-C. Jagau,  Hyunjun Ji,  B. Kaduk,  
 K. Khistyaev,  Jaehoon Kim,  P. Klunzinger,  K. Koh,  D. Kosenkov,  
 L. Koulias,  T. Kowalczyk,  C. M. Krauter,  A. Kunitsa,  Ka Un Lao,  
 A. Laurent,  K. V. Lawler,  Joonho Lee,  D. Lefrancois,  S. Lehtola,  
 D. S. Levine,  Yi-Pei Li,  You-Sheng Lin,  Fenglai Liu,  E. Livshits,  
 A. Luenser,  P. Manohar,  E. Mansoor,  S. F. Manzer,  Shan-Ping Mao,  
 Yuezhi Mao,  N. Mardirossian,  A. V. Marenich,  T. Markovich,  
 L. A. Martinez-Martinez,  S. A. Maurer,  N. J. Mayhall,  S. C. McKenzie,  
 J.-M. Mewes,  A. F. Morrison,  J. W. Mullinax,  K. Nanda,  
 T. S. Nguyen-Beck,  R. Olivares-Amaya,  J. A. Parkhill,  T. M. Perrine,  
 F. Plasser,  S. Prager,  A. Prociuk,  E. Ramos,  D. R. Rehn,  F. Rob,  
 M. Schneider,  N. Sergueev,  S. M. Sharada,  S. Sharma,  D. W. Small,  
 T. Stauch,  T. Stein,  Yu-Chuan Su,  A. J. W. Thom,  A. Tkatchenko,  
 T. Tsuchimochi,  L. Vogt,  O. Vydrov,  M. A. Watson,  J. Wenzel,  
 M. de Wergifosse,  T. A. Wesolowski,  A. White,  J. Witte,  A. Yamada,  
 Jun Yang,  K. Yao,  S. Yeganeh,  S. R. Yost,  Zhi-Qiang You,  A. Zech,  
 Igor Ying Zhang,  Xing Zhang,  Yan Zhao,  Ying Zhu,  B. R. Brooks,  
 G. K. L. Chan,  C. J. Cramer,  M. S. Gordon,  W. J. Hehre,  A. Klamt,  
 M. W. Schmidt,  C. D. Sherrill,  D. G. Truhlar,  A. Aspuru-Guzik,  R. Baer,  
 A. T. Bell,  N. A. Besley,  Jeng-Da Chai,  R. A. DiStasio Jr.,  A. Dreuw,  
 B. D. Dunietz,  T. R. Furlani,  Chao-Ping Hsu,  Yousung Jung,  Jing Kong,  
 D. S. Lambrecht,  WanZhen Liang,  C. Ochsenfeld,  V. A. Rassolov,  
 L. V. Slipchenko,  J. E. Subotnik,  T. Van Voorhis,  J. M. Herbert,  
 A. I. Krylov,  P. M. W. Gill,  M. Head-Gordon

 Contributors to earlier versions of Q-Chem not listed above: 
 R. D. Adamson,  B. Austin,  J. Baker,  G. J. O. Beran,  K. Brandhorst,  
 S. T. Brown,  E. F. C. Byrd,  A. K. Chakraborty,  C.-L. Cheng,  
 Siu Hung Chien,  D. M. Chipman,  D. L. Crittenden,  H. Dachsel,  
 R. J. Doerksen,  A. D. Dutoi,  L. Fusti-Molnar,  W. A. Goddard III,  
 A. Golubeva-Zadorozhnaya,  S. R. Gwaltney,  G. Hawkins,  A. Heyden,  
 S. Hirata,  G. Kedziora,  F. J. Keil,  C. Kelley,  Jihan Kim,  R. A. King,  
 R. Z. Khaliullin,  P. P. Korambath,  W. Kurlancheek,  A. M. Lee,  M. S. Lee,  
 S. V. Levchenko,  Ching Yeh Lin,  D. Liotard,  R. C. Lochan,  I. Lotan,  
 P. E. Maslen,  N. Nair,  D. P. O'Neill,  D. Neuhauser,  E. Neuscamman,  
 C. M. Oana,  R. Olson,  B. Peters,  R. Peverati,  P. A. Pieniazek,  
 Y. M. Rhee,  J. Ritchie,  M. A. Rohrdanz,  E. Rosta,  N. J. Russ,  
 H. F. Schaefer III,  N. E. Schultz,  N. Shenvi,  A. C. Simmonett,  A. Sodt,  
 D. Stuck,  K. S. Thanthiriwatte,  V. Vanovschi,  Tao Wang,  A. Warshel,  
 C. F. Williams,  Q. Wu,  X. Xu,  W. Zhang

 Please cite Q-Chem as follows:
 Y. Shao et al., Mol. Phys. 113, 184-215 (2015)
 DOI: 10.1080/00268976.2014.952696

 Q-Chem 5.0.2 for Intel X86 EM64T Linux

 Parts of Q-Chem use Armadillo 5.200.1 (Boston Tea Smuggler).
 http://arma.sourceforge.net/

 Q-Chem begins on Thu Feb  1 12:09:24 2018  


Host: 0

     Scratch files written to /home/jcartus/scratch/02_methane-Cl2_mono1.dir//
 Using version located at /usr/local/qchem/bin/qchem

 Parallel job on  1  processors

Total Memory Limit in MB = 2000
Mega-Array Size in MB = 192

Checking the input file for inconsistencies... 	...done.
Finally everything over in PARseQInput

--------------------------------------------------------------
User input:
--------------------------------------------------------------
$rem
SCF_PRINT                     1
BASIS                         6-311++g**
SCF_SAVE_MATRICES             1
SCF_CONVERGENCE               5
SCF_FINAL_PRINT               1
METHOD                        hf
JOBTYPE                       sp
$end

$molecule
0 1
C    -0.029223    -0.304334    -0.044139
H    -1.013963    0.140625    -0.15039
H    -0.06119    -1.086463    0.708351
H    0.678304    0.459656    0.262535
H    0.286077    -0.724543    -0.994403
$end


--------------------------------------------------------------
 ----------------------------------------------------------------
             Standard Nuclear Orientation (Angstroms)
    I     Atom           X                Y                Z
 ----------------------------------------------------------------
    1      C      -0.0000003445    -0.0000014903     0.0009390244
    2      H       0.9373759601     0.4136078124     0.3604437707
    3      H      -0.1103428627    -1.0193049057     0.3584777467
    4      H       0.0003984792     0.0012079876    -1.0845666164
    5      H      -0.8274295093     0.6044980475     0.3600109523
 ----------------------------------------------------------------
 Molecular Point Group                 C1    NOp =  1
 Largest Abelian Subgroup              C1    NOp =  1
 Nuclear Repulsion Energy =    13.4881559145 hartrees
 There are        5 alpha and        5 beta electrons
 Requested basis set is 6-311++G(d,p)
 There are 26 shells and 50 basis functions

 Total QAlloc Memory Limit   2000 MB
 Mega-Array Size       188 MB
 MEM_STATIC part       192 MB

finished with qalloc call

                       Distance Matrix (Angstroms)
             C (  1)   H (  2)   H (  3)   H (  4)
   H (  2)  1.085813
   H (  3)  1.085813  1.775094
   H (  4)  1.085506  1.770891  1.770900
   H (  5)  1.085814  1.775099  1.775092  1.770893

 Job number = 2, Threshold = 1.00E-08
Integral type ranges set in mkLRange.C for JobNum: 2  <1-21|1-21>
Symmetry turned off temporarily
 Using the largest function pair in Schwarz integrals
Total number of integrals generated =           13035
Symmetry turned back on
 A cutoff of  1.0D-08 yielded    351 shell pairs
 There are      1321 function pairs (      1377 Cartesian)
 Job number = 11, Threshold = 1.00E-08
Integral type ranges set in mkLRange.C for JobNum: 11  <1-21|22-22>
Total number of integrals generated =            6885
 Smallest overlap matrix eigenvalue = 1.33E-03
 Multipole matrices computed through 2nd order

 Scale SEOQF with 1.000000e-01/1.000000e-01/1.000000e-01

 Standard Electronic Orientation quadrupole field applied
 ENuRep (before)= 13.488156
 ENucField = 0.000000
 ENuRep (after) = 13.488156
 Guess from superposition of atomic densities
 Warning:  Energy on first SCF cycle will be non-variational
 SAD guess density has 10.000000 electrons

 ==================================================
    GEN_SCFMAN: A general SCF calculation manager  
                                                   
    Authors:                                       
        -- Eric Jon Sundstrom 2008-2014            
        -- Paul Horn 2010-2015                     
        -- Yuezhi Mao 2012-                        
        -- Dmitri Zuev 2014                        
        -- Alec White 2015-                        
        -- David Stuck 2015                        
        -- Shaama M.S. 2015                        
        -- Shane Yost 2015-                         
        -- Joonho Lee 2016-                        
        -- David Small 2016-                       
        -- Daniel Levine 2016-                     
        -- Susi Lehtola 2017-                      
        -- Hugh Burton 2017-                       
 ==================================================
 Hartree-Fock
Finding J and K together
 Job number = 22, Threshold = 1.00E-08
Integral type ranges set in mkLRange.C for JobNum: 22  <1-21|1-21>
 MakeJK  time:  CPU       0.21 s  wall       0.24 s
 HF Exchange:               -6.48642807857703
 One-Electron:             -78.39248101157818
 Total Coulomb:             31.13804999141874
 Nuclear repulsion:         13.48815591446767
 A restricted SCF calculation will be
 performed using DIIS
 SCF converges when DIIS error is below 1.0e-05
 ---------------------------------------
  Cycle       Energy         DIIS error
 ---------------------------------------
Finding J and K together
 Job number = 22, Threshold = 1.00E-08
Integral type ranges set in mkLRange.C for JobNum: 22  <1-21|1-21>
 MakeJK  time:  CPU       0.33 s  wall       0.35 s
 HF Exchange:               -6.57938982011621
 One-Electron:             -80.03202618858903
 Total Coulomb:             32.92603389367654
 Nuclear repulsion:         13.48815591446767
    1     -40.2527031843      7.41e-02  
Finding J and K together
 Job number = 22, Threshold = 1.00E-08
Integral type ranges set in mkLRange.C for JobNum: 22  <1-21|1-21>
 MakeJK  time:  CPU       0.34 s  wall       0.36 s
 HF Exchange:               -6.56928343416325
 One-Electron:             -79.70132665287983
 Total Coulomb:             32.57443833427956
 Nuclear repulsion:         13.48815591446767
    2     -40.1972262006      5.57e-03  
Finding J and K together
 Job number = 22, Threshold = 1.00E-08
Integral type ranges set in mkLRange.C for JobNum: 22  <1-21|1-21>
 MakeJK  time:  CPU       0.33 s  wall       0.36 s
 HF Exchange:               -6.59520322156207
 One-Electron:             -79.85593670969197
 Total Coulomb:             32.75397575476924
 Nuclear repulsion:         13.48815591446767
    3     -40.2080158383      1.60e-03  
Finding J and K together
 Job number = 22, Threshold = 1.00E-08
Integral type ranges set in mkLRange.C for JobNum: 22  <1-21|1-21>
 MakeJK  time:  CPU       0.33 s  wall       0.37 s
 HF Exchange:               -6.59416342339082
 One-Electron:             -79.81765849181104
 Total Coulomb:             32.71452954031186
 Nuclear repulsion:         13.48815591446767
    4     -40.2090082620      5.24e-04  
Finding J and K together
 Job number = 22, Threshold = 1.00E-08
Integral type ranges set in mkLRange.C for JobNum: 22  <1-21|1-21>
 MakeJK  time:  CPU       0.33 s  wall       0.38 s
 HF Exchange:               -6.59499130414724
 One-Electron:             -79.81914448988226
 Total Coulomb:             32.71683967063294
 Nuclear repulsion:         13.48815591446767
    5     -40.2091364604      6.93e-05  
    6     -40.2091402089      6.65e-06  Convergence criterion met
 ---------------------------------------
 SCF time:   CPU 1.91s  wall 2.00s 
 Total energy in the final basis set =      -40.2091402089
 HF Exchange:               -6.59499130414724
 One-Electron:             -79.81914448988226
 Total Coulomb:             32.71683967063294
 Nuclear repulsion:         13.48815591446767
Wall  1 = 2
Clock 1 = 1.92526900768280
 ==================================================
                  Done GEN_SCFMAN                  
 ==================================================

Symmetry turned off temporarily

 --------------------------------------------------------------

                    Orbital Energies (a.u.)
 --------------------------------------------------------------

 Alpha MOs
 -- Occupied --
-11.206  -0.944  -0.546  -0.546  -0.545
 -- Virtual --
  0.042   0.078   0.078   0.078   0.153   0.153   0.153   0.189
  0.309   0.309   0.309   0.382   0.551   0.551   0.551   0.866
  0.876   0.876   0.876   1.037   1.202   1.202   1.726   1.727
  1.727   1.808   1.808   1.809   2.205   2.208   2.208   2.628
  2.628   2.692   2.798   2.798   2.798   2.940   2.940   2.940
  3.270   4.211   4.213   4.214  25.213
 --------------------------------------------------------------

          Ground-State Mulliken Net Atomic Charges

     Atom                 Charge (a.u.)
  ----------------------------------------
      1 C                    -0.468602
      2 H                     0.117120
      3 H                     0.117120
      4 H                     0.117241
      5 H                     0.117120
  ----------------------------------------
  Sum of atomic charges =     0.000000

 -----------------------------------------------------------------
                    Cartesian Multipole Moments
 -----------------------------------------------------------------
    Charge (ESU x 10^10)
                -0.0000
    Dipole Moment (Debye)
         X       0.0000      Y       0.0000      Z      -0.0033
       Tot       0.0033
    Quadrupole Moments (Debye-Ang)
        XX      -8.4160     XY       0.0000     YY      -8.4160
        XZ       0.0000     YZ       0.0000     ZZ      -8.4354
    Octopole Moments (Debye-Ang^2)
       XXX       0.1778    XXY       0.5316    XYY      -0.1784
       YYY      -0.5333    XXZ       0.3896    XYZ      -0.0000
       YYZ       0.3883    XZZ       0.0006    YZZ       0.0017
       ZZZ      -0.7872
    Hexadecapole Moments (Debye-Ang^3)
      XXXX     -15.8200   XXXY      -0.0005   XXYY      -5.2740
      XYYY       0.0005   YYYY     -15.8184   XXXZ       0.1123
      XXYZ       0.3345   XYYZ      -0.1119   YYYZ      -0.3334
      XXZZ      -5.5252   XYZZ      -0.0000   YYZZ      -5.5269
      XZZZ      -0.0004   YZZZ      -0.0011   ZZZZ     -15.5666
 -----------------------------------------------------------------
 Mayer SCF Bond Order, atomic valence on the diagonal:

            1           2           3           4           5
    1   3.8987250   0.9747762   0.9747761   0.9743964   0.9747762
    2   0.9747762   0.9268520  -0.0159089  -0.0161067  -0.0159087
    3   0.9747761  -0.0159089   0.9268521  -0.0161063  -0.0159089
    4   0.9743964  -0.0161067  -0.0161063   0.9260768  -0.0161066
    5   0.9747762  -0.0159087  -0.0159089  -0.0161066   0.9268520


 JobOver = TRUE
Archival summary:
1\1\qciep03\SP\HF\BasisUnspecified\14\jcartus\ThuFeb112:09:262018ThuFeb112:09:262018\0\\#,HF,BasisUnspecified,\\0,1\C\H,1,1.08551\H,1,1.08581,2,109.291\H,1,1.08581,2,109.29,3,120,0\H,1,1.08581,2,109.29,3,-120,0\\HF=-40.2091402\\@

 Total job time:  2.30s(wall), 2.04s(cpu) 
 Thu Feb  1 12:09:26 2018

        *************************************************************
        *                                                           *
        *  Thank you very much for using Q-Chem.  Have a nice day.  *
        *                                                           *
        *************************************************************


*** MISSION COMPLETED -- STARFLEET OUT ***

0 sent ACK to 0 
now end server 0 ... 
