Process 0 of 1 is on qciep03 - thread support 0
initial socket setup ...start
initial socket setup ...done 
now start server 0 ... 
qciep03.tugraz.at 127.0.1
Q-Chem Developer Version! Running on 127.0.1.*
                  Welcome to Q-Chem
     A Quantum Leap Into The Future Of Chemistry


 Q-Chem 5.0, Q-Chem, Inc., Pleasanton, CA (2017)

 Yihan Shao,  Zhengting Gan,  E. Epifanovsky,  A. T. B. Gilbert,  M. Wormit,  
 J. Kussmann,  A. W. Lange,  A. Behn,  Jia Deng,  Xintian Feng,  D. Ghosh,  
 M. Goldey,  P. R. Horn,  L. D. Jacobson,  I. Kaliman,  T. Kus,  A. Landau,  
 Jie Liu,  E. I. Proynov,  R. M. Richard,  R. P. Steele,  E. J. Sundstrom,  
 H. L. Woodcock III,  P. M. Zimmerman,  D. Zuev,  B. Albrecht,  E. Alguire,  
 S. A. Baeppler,  D. Barton,  Z. Benda,  Y. A. Bernard,  E. J. Berquist,  
 K. B. Bravaya,  H. Burton,  D. Casanova,  Chun-Min Chang,  Yunqing Chen,  
 A. Chien,  K. D. Closser,  M. P. Coons,  S. Dasgupta,  A. L. Dempwolff,  
 M. Diedenhofen,  Hainam Do,  R. G. Edgar,  Po-Tung Fang,  S. Fatehi,  
 Qingguo Feng,  J. Fosso-Tande,  Qinghui Ge,  A. Ghysels,  G. Gidofalvi,  
 J. Gomes,  J. Gonthier,  A. Gunina,  M. W. D. Hanson-Heine,  
 P. H. P. Harbach,  A. W. Hauser,  J. E. Herr,  E. G. Hohenstein,  
 Z. C. Holden,  Kerwin Hui,  T.-C. Jagau,  Hyunjun Ji,  B. Kaduk,  
 K. Khistyaev,  Jaehoon Kim,  P. Klunzinger,  K. Koh,  D. Kosenkov,  
 L. Koulias,  T. Kowalczyk,  C. M. Krauter,  A. Kunitsa,  Ka Un Lao,  
 A. Laurent,  K. V. Lawler,  Joonho Lee,  D. Lefrancois,  S. Lehtola,  
 D. S. Levine,  Yi-Pei Li,  You-Sheng Lin,  Fenglai Liu,  E. Livshits,  
 A. Luenser,  P. Manohar,  E. Mansoor,  S. F. Manzer,  Shan-Ping Mao,  
 Yuezhi Mao,  N. Mardirossian,  A. V. Marenich,  T. Markovich,  
 L. A. Martinez-Martinez,  S. A. Maurer,  N. J. Mayhall,  S. C. McKenzie,  
 J.-M. Mewes,  A. F. Morrison,  J. W. Mullinax,  K. Nanda,  
 T. S. Nguyen-Beck,  R. Olivares-Amaya,  J. A. Parkhill,  T. M. Perrine,  
 F. Plasser,  S. Prager,  A. Prociuk,  E. Ramos,  D. R. Rehn,  F. Rob,  
 M. Schneider,  N. Sergueev,  S. M. Sharada,  S. Sharma,  D. W. Small,  
 T. Stauch,  T. Stein,  Yu-Chuan Su,  A. J. W. Thom,  A. Tkatchenko,  
 T. Tsuchimochi,  L. Vogt,  O. Vydrov,  M. A. Watson,  J. Wenzel,  
 M. de Wergifosse,  T. A. Wesolowski,  A. White,  J. Witte,  A. Yamada,  
 Jun Yang,  K. Yao,  S. Yeganeh,  S. R. Yost,  Zhi-Qiang You,  A. Zech,  
 Igor Ying Zhang,  Xing Zhang,  Yan Zhao,  Ying Zhu,  B. R. Brooks,  
 G. K. L. Chan,  C. J. Cramer,  M. S. Gordon,  W. J. Hehre,  A. Klamt,  
 M. W. Schmidt,  C. D. Sherrill,  D. G. Truhlar,  A. Aspuru-Guzik,  R. Baer,  
 A. T. Bell,  N. A. Besley,  Jeng-Da Chai,  R. A. DiStasio Jr.,  A. Dreuw,  
 B. D. Dunietz,  T. R. Furlani,  Chao-Ping Hsu,  Yousung Jung,  Jing Kong,  
 D. S. Lambrecht,  WanZhen Liang,  C. Ochsenfeld,  V. A. Rassolov,  
 L. V. Slipchenko,  J. E. Subotnik,  T. Van Voorhis,  J. M. Herbert,  
 A. I. Krylov,  P. M. W. Gill,  M. Head-Gordon

 Contributors to earlier versions of Q-Chem not listed above: 
 R. D. Adamson,  B. Austin,  J. Baker,  G. J. O. Beran,  K. Brandhorst,  
 S. T. Brown,  E. F. C. Byrd,  A. K. Chakraborty,  C.-L. Cheng,  
 Siu Hung Chien,  D. M. Chipman,  D. L. Crittenden,  H. Dachsel,  
 R. J. Doerksen,  A. D. Dutoi,  L. Fusti-Molnar,  W. A. Goddard III,  
 A. Golubeva-Zadorozhnaya,  S. R. Gwaltney,  G. Hawkins,  A. Heyden,  
 S. Hirata,  G. Kedziora,  F. J. Keil,  C. Kelley,  Jihan Kim,  R. A. King,  
 R. Z. Khaliullin,  P. P. Korambath,  W. Kurlancheek,  A. M. Lee,  M. S. Lee,  
 S. V. Levchenko,  Ching Yeh Lin,  D. Liotard,  R. C. Lochan,  I. Lotan,  
 P. E. Maslen,  N. Nair,  D. P. O'Neill,  D. Neuhauser,  E. Neuscamman,  
 C. M. Oana,  R. Olson,  B. Peters,  R. Peverati,  P. A. Pieniazek,  
 Y. M. Rhee,  J. Ritchie,  M. A. Rohrdanz,  E. Rosta,  N. J. Russ,  
 H. F. Schaefer III,  N. E. Schultz,  N. Shenvi,  A. C. Simmonett,  A. Sodt,  
 D. Stuck,  K. S. Thanthiriwatte,  V. Vanovschi,  Tao Wang,  A. Warshel,  
 C. F. Williams,  Q. Wu,  X. Xu,  W. Zhang

 Please cite Q-Chem as follows:
 Y. Shao et al., Mol. Phys. 113, 184-215 (2015)
 DOI: 10.1080/00268976.2014.952696

 Q-Chem 5.0.2 for Intel X86 EM64T Linux

 Parts of Q-Chem use Armadillo 5.200.1 (Boston Tea Smuggler).
 http://arma.sourceforge.net/

 Q-Chem begins on Thu Feb  1 12:07:49 2018  


Host: 0

     Scratch files written to /home/jcartus/scratch/19_benCl-acetone.dir//
 Using version located at /usr/local/qchem/bin/qchem

 Parallel job on  1  processors

Total Memory Limit in MB = 2000
Mega-Array Size in MB = 192

Checking the input file for inconsistencies... 	...done.
Finally everything over in PARseQInput

--------------------------------------------------------------
User input:
--------------------------------------------------------------
$rem
SCF_PRINT                     1
BASIS                         6-311++g**
SCF_SAVE_MATRICES             1
SCF_CONVERGENCE               5
SCF_FINAL_PRINT               1
METHOD                        hf
JOBTYPE                       sp
$end

$molecule
0 1
C    -0.45374374    0.000182739    1.059200327
C    0.583994572    -2.8402e-05    1.98824481
C    1.911123808    -0.00014276    1.563951774
C    2.200015462    -6.0948e-05    0.200857138
C    1.171852556    0.000151689    -0.738466754
H    -1.486276324    0.000268975    1.377240603
H    0.351319424    -0.000103142    3.044291019
H    2.712830438    -0.00029039    2.288837764
H    3.227238082    -0.000162856    -0.136887263
H    1.3832747    0.000214894    -1.797905634
C    -0.149841459    0.000281008    -0.299799844
Cl    -1.432288391    0.000559697    -1.466414983
O    -3.696572914    0.000152987    -3.61861755
C    -4.843989757    0.001944155    -3.211415447
C    -6.003097569    -0.000552348    -4.185876962
C    -5.132206123    0.006671195    -1.72526393
H    -5.91776328    0.87330307    -4.829393925
H    -5.918845591    -0.878698982    -4.823653257
H    -6.973224937    0.001637767    -3.699032662
H    -6.193070441    0.008055248    -1.495292581
H    -4.662540213    -0.867116113    -1.276801052
H    -4.661407822    0.882569128    -1.28215677
$end


--------------------------------------------------------------
 ----------------------------------------------------------------
             Standard Nuclear Orientation (Angstroms)
    I     Atom           X                Y                Z
 ----------------------------------------------------------------
    1      C       2.1614860863    -1.1599743445    -0.0014460035
    2      C       3.5386426164    -1.3684554655    -0.0015644254
    3      C       4.4162732893    -0.2863004308    -0.0003456445
    4      C       3.9109831140     1.0122239059     0.0009835556
    5      C       2.5362034504     1.2345507802     0.0011185292
    6      H       1.4720591886    -1.9918173749    -0.0023878854
    7      H       3.9227016942    -2.3793307557    -0.0026123343
    8      H       5.4841166585    -0.4533446554    -0.0004270307
    9      H       4.5851708416     1.8576395622     0.0019205525
   10      H       2.1325072835     2.2366178569     0.0021412277
   11      C       1.6709958640     0.1433504727    -0.0000919670
   12      Cl     -0.0410411543     0.4164627386     0.0000860688
   13      O      -3.1144582470     0.9759871484    -0.0004287299
   14      C      -3.8511266511     0.0066051467     0.0001794196
   15      C      -5.3546948048     0.1865723477    -0.0024682810
   16      C      -3.2778402221    -1.3944903337     0.0035668912
   17      H      -5.6361440039     0.7707143469     0.8719365378
   18      H      -5.6335075189     0.7671563678    -0.8800696570
   19      H      -5.8994197742    -0.7522795123    -0.0013857785
   20      H      -4.0392265389    -2.1681908922     0.0039675269
   21      H      -2.6390227804    -1.5113435009    -0.8701990346
   22      H      -2.6414059059    -1.5080776574     0.8794900988
 ----------------------------------------------------------------
 Molecular Point Group                 C1    NOp =  1
 Largest Abelian Subgroup              C1    NOp =  1
 Nuclear Repulsion Energy =   609.3802151063 hartrees
 There are       45 alpha and       45 beta electrons
 Requested basis set is 6-311++G(d,p)
 There are 128 shells and 327 basis functions

 Total QAlloc Memory Limit   2000 MB
 Mega-Array Size       188 MB
 MEM_STATIC part       192 MB

finished with qalloc call
 Job number = 2, Threshold = 1.00E-08
Integral type ranges set in mkLRange.C for JobNum: 2  <1-21|1-21>
Symmetry turned off temporarily
 Using the largest function pair in Schwarz integrals
Total number of integrals generated =          542363
Symmetry turned back on
 A cutoff of  1.0D-08 yielded   5555 shell pairs
 There are     36827 function pairs (     39143 Cartesian)
 Job number = 11, Threshold = 1.00E-08
Integral type ranges set in mkLRange.C for JobNum: 11  <1-21|22-22>
Total number of integrals generated =          861080
 Smallest overlap matrix eigenvalue = 8.61E-07

 Q-Chem warning in module /usr/local/qchem/stvman/mkSTV.C, line 295:

 Overlap eigenvalue is smaller than square root of threshold

 Linear dependence detected in AO basis
 Number of orthogonalized atomic orbitals = 326
 Maximum deviation from orthogonality = 6.538E-11
 Multipole matrices computed through 2nd order

 Scale SEOQF with 1.000000e-02/1.000000e-01/1.000000e-01

 Standard Electronic Orientation quadrupole field applied
 Nucleus-field energy     =     0.0000000094 hartrees
 ENuRep (before)= 609.3802151063
 ENucField = 0.0000000094
 ENuRep (after) = 609.3802151156
 Guess from superposition of atomic densities
 Warning:  Energy on first SCF cycle will be non-variational
 SAD guess density has 90.000000 electrons

 ==================================================
    GEN_SCFMAN: A general SCF calculation manager  
                                                   
    Authors:                                       
        -- Eric Jon Sundstrom 2008-2014            
        -- Paul Horn 2010-2015                     
        -- Yuezhi Mao 2012-                        
        -- Dmitri Zuev 2014                        
        -- Alec White 2015-                        
        -- David Stuck 2015                        
        -- Shaama M.S. 2015                        
        -- Shane Yost 2015-                         
        -- Joonho Lee 2016-                        
        -- David Small 2016-                       
        -- Daniel Levine 2016-                     
        -- Susi Lehtola 2017-                      
        -- Hugh Burton 2017-                       
 ==================================================
 Hartree-Fock
Finding J and K together
 Job number = 22, Threshold = 1.00E-08
Integral type ranges set in mkLRange.C for JobNum: 22  <1-21|1-21>
 MakeJK  time:  CPU      18.18 s  wall      20.23 s
 HF Exchange:              -87.48737430316258
 One-Electron:             -2410.02714638730731
 Total Coulomb:            1002.63684974389116
 Nuclear repulsion:        609.38021511560760
 A restricted SCF calculation will be
 performed using DIIS
 SCF converges when DIIS error is below 1.0e-05
 ---------------------------------------
  Cycle       Energy         DIIS error
 ---------------------------------------
Finding J and K together
 Job number = 22, Threshold = 1.00E-08
Integral type ranges set in mkLRange.C for JobNum: 22  <1-21|1-21>
 MakeJK  time:  CPU      86.10 s  wall      86.61 s
 HF Exchange:              -86.33085556415988
 One-Electron:             -2418.07985519352496
 Total Coulomb:            1013.52575115031993
 Nuclear repulsion:        609.38021511560760
    1    -885.4974558310      3.61e-02  
Finding J and K together
 Job number = 22, Threshold = 1.00E-08
Integral type ranges set in mkLRange.C for JobNum: 22  <1-21|1-21>
 MakeJK  time:  CPU      88.83 s  wall      88.91 s
 HF Exchange:              -86.23852248334553
 One-Electron:             -2417.47929384266263
 Total Coulomb:            1012.70646024590712
 Nuclear repulsion:        609.38021511560760
    2    -881.5047444918      3.43e-03  
Finding J and K together
 Job number = 22, Threshold = 1.00E-08
Integral type ranges set in mkLRange.C for JobNum: 22  <1-21|1-21>
 MakeJK  time:  CPU      89.32 s  wall      89.40 s
 HF Exchange:              -86.40006489490915
 One-Electron:             -2417.83082345678122
 Total Coulomb:            1013.16405103462591
 Nuclear repulsion:        609.38021511560760
    3    -881.6311409645      2.39e-03  
Finding J and K together
 Job number = 22, Threshold = 1.00E-08
Integral type ranges set in mkLRange.C for JobNum: 22  <1-21|1-21>
 MakeJK  time:  CPU      90.08 s  wall      90.16 s
 HF Exchange:              -86.40955477579517
 One-Electron:             -2417.83387294935801
 Total Coulomb:            1013.17217377718998
 Nuclear repulsion:        609.38021511560760
    4    -881.6866222015      4.84e-04  
Finding J and K together
 Job number = 22, Threshold = 1.00E-08
Integral type ranges set in mkLRange.C for JobNum: 22  <1-21|1-21>
 MakeJK  time:  CPU      89.86 s  wall      89.94 s
 HF Exchange:              -86.41299456810367
 One-Electron:             -2417.82428363656254
 Total Coulomb:            1013.16574685107105
 Nuclear repulsion:        609.38021511560760
    5    -881.6910388324      1.11e-04  
Finding J and K together
 Job number = 22, Threshold = 1.00E-08
Integral type ranges set in mkLRange.C for JobNum: 22  <1-21|1-21>
 MakeJK  time:  CPU      88.58 s  wall      90.18 s
 HF Exchange:              -86.41318485643450
 One-Electron:             -2417.80330806612756
 Total Coulomb:            1013.14490748585308
 Nuclear repulsion:        609.38021511560760
    6    -881.6913162380      4.15e-05  
Finding J and K together
 Job number = 22, Threshold = 1.00E-08
Integral type ranges set in mkLRange.C for JobNum: 22  <1-21|1-21>
 MakeJK  time:  CPU      89.68 s  wall      92.61 s
 HF Exchange:              -86.41394287358638
 One-Electron:             -2417.81445413987922
 Total Coulomb:            1013.15680109728009
 Nuclear repulsion:        609.38021511560760
    7    -881.6913703211      2.00e-05  
    8    -881.6913808006      8.49e-06  Convergence criterion met
 ---------------------------------------
 SCF time:   CPU 647.98s  wall 656.00s 
 Total energy in the final basis set =     -881.6913808006
 HF Exchange:              -86.41394287358638
 One-Electron:             -2417.81445413987922
 Total Coulomb:            1013.15680109728009
 Nuclear repulsion:        609.38021511560760
Wall  1 = 657
Clock 1 = 648.76470947265625
 ==================================================
                  Done GEN_SCFMAN                  
 ==================================================

Symmetry turned off temporarily

 --------------------------------------------------------------

                    Orbital Energies (a.u.)
 --------------------------------------------------------------

 Alpha MOs
 -- Occupied --
******* -20.540 -11.335 -11.297 -11.247 -11.247 -11.246 -11.245
-11.242 -11.233 -11.232 -10.552  -8.021  -8.017  -8.017  -1.383
 -1.186  -1.113  -1.037  -1.028  -0.991  -0.970  -0.842  -0.816
 -0.741  -0.708  -0.645  -0.643  -0.640  -0.636  -0.618  -0.600
 -0.584  -0.565  -0.565  -0.537  -0.534  -0.512  -0.506  -0.477
 -0.460  -0.443  -0.410  -0.347  -0.329
 -- Virtual --
  0.037   0.041   0.048   0.055   0.062   0.070   0.073   0.078
  0.087   0.093   0.103   0.103   0.107   0.119   0.122   0.126
  0.130   0.143   0.153   0.153   0.161   0.172   0.172   0.176
  0.179   0.182   0.183   0.185   0.188   0.193   0.205   0.206
  0.208   0.210   0.212   0.220   0.225   0.226   0.232   0.233
  0.237   0.240   0.249   0.255   0.260   0.268   0.281   0.291
  0.293   0.305   0.315   0.319   0.325   0.330   0.341   0.349
  0.354   0.358   0.384   0.396   0.403   0.404   0.410   0.413
  0.428   0.433   0.435   0.447   0.456   0.469   0.487   0.498
  0.501   0.512   0.531   0.549   0.560   0.589   0.620   0.621
  0.622   0.647   0.651   0.676   0.706   0.716   0.718   0.735
  0.739   0.742   0.750   0.755   0.770   0.770   0.782   0.783
  0.812   0.816   0.820   0.838   0.844   0.867   0.870   0.880
  0.885   0.903   0.905   0.928   0.933   0.944   0.945   0.957
  0.958   0.980   1.013   1.025   1.039   1.043   1.064   1.080
  1.081   1.104   1.120   1.126   1.141   1.144   1.155   1.155
  1.168   1.203   1.216   1.229   1.231   1.242   1.291   1.316
  1.358   1.364   1.381   1.383   1.454   1.462   1.487   1.494
  1.507   1.564   1.588   1.616   1.634   1.705   1.712   1.718
  1.730   1.752   1.785   1.787   1.793   1.810   1.814   1.828
  1.830   1.835   1.838   1.870   1.886   1.900   1.916   1.918
  1.973   1.989   2.011   2.013   2.018   2.049   2.080   2.107
  2.133   2.137   2.176   2.191   2.202   2.225   2.225   2.226
  2.241   2.260   2.293   2.303   2.336   2.359   2.374   2.407
  2.421   2.459   2.474   2.555   2.584   2.630   2.635   2.652
  2.689   2.749   2.763   2.789   2.798   2.803   2.814   2.841
  2.858   2.868   2.883   2.888   2.901   2.904   2.930   2.954
  2.958   2.978   3.002   3.014   3.023   3.030   3.047   3.049
  3.054   3.083   3.186   3.189   3.198   3.210   3.214   3.220
  3.249   3.283   3.290   3.291   3.324   3.370   3.476   3.509
  3.588   3.595   3.675   3.753   3.765   3.797   3.907   3.917
  3.927   4.038   4.083   4.180   4.181   4.217   4.226   4.282
  4.404   4.464   4.558   4.566   4.589   4.700   5.270   5.629
  5.801   6.304  10.598  24.705  24.972  25.076  25.119  25.132
 25.152  25.228  25.257  25.350  26.787  27.139  27.780  51.696
219.471
 --------------------------------------------------------------

          Ground-State Mulliken Net Atomic Charges

     Atom                 Charge (a.u.)
  ----------------------------------------
      1 C                    -0.546025
      2 C                    -0.226837
      3 C                    -0.506151
      4 C                    -0.378058
      5 C                    -0.162420
      6 H                     0.195400
      7 H                     0.223973
      8 H                     0.180324
      9 H                     0.214798
     10 H                     0.238296
     11 C                     0.256585
     12 Cl                    0.531805
     13 O                    -0.308512
     14 C                     0.604598
     15 C                    -0.797606
     16 C                    -0.497742
     17 H                     0.176965
     18 H                     0.176977
     19 H                     0.131376
     20 H                     0.124720
     21 H                     0.183771
     22 H                     0.183762
  ----------------------------------------
  Sum of atomic charges =    -0.000000

 -----------------------------------------------------------------
                    Cartesian Multipole Moments
 -----------------------------------------------------------------
    Charge (ESU x 10^10)
                -0.0000
    Dipole Moment (Debye)
         X      -0.5725      Y      -2.7864      Z       0.0015
       Tot       2.8446
    Quadrupole Moments (Debye-Ang)
        XX     -49.1800     XY       7.8586     YY     -69.7833
        XZ      -0.0028     YZ       0.0107     ZZ     -77.0254
    Octopole Moments (Debye-Ang^2)
       XXX     -67.0657    XXY     -17.0607    XYY      12.3011
       YYY      -0.3967    XXZ       0.0051    XYZ       0.0327
       YYZ       0.0020    XZZ     -26.2204    YZZ       2.2130
       ZZZ       0.0023
    Hexadecapole Moments (Debye-Ang^3)
      XXXX   -4095.8103   XXXY      43.3065   XXYY    -841.7694
      XYYY       7.4046   YYYY    -463.8002   XXXZ       0.0537
      XXYZ       0.1199   XYYZ      -0.0340   YYYZ       0.0773
      XXZZ    -867.9152   XYZZ      -5.5027   YYZZ    -105.7205
      XZZZ       0.0494   YZZZ      -0.0324   ZZZZ    -100.6354
 -----------------------------------------------------------------
 Mayer SCF Bond Order, atomic valence on the diagonal:

            1           2           3           4           5           6
    1   4.6307966   1.5469932   0.1456582   0.0509811   0.1069622   0.9155306
    2   1.5469932   4.0934132   1.6147423  -0.0264489   0.0184792   0.0075969
    3   0.1456582   1.6147423   4.3811370   1.6834600  -0.0266318   0.0306122
    4   0.0509811  -0.0264489   1.6834600   4.3099222   1.4392401  -0.0220689
    5   0.1069622   0.0184792  -0.0266318   1.4392401   4.1660272   0.0100814
    6   0.9155306   0.0075969   0.0306122  -0.0220689   0.0100814   0.9369089
    7  -0.0241129   0.8765334   0.0273841   0.0014612  -0.0084283   0.0005214
    8   0.0094543  -0.0155286   0.9507035   0.0092034  -0.0089461   0.0021989
    9  -0.0123660   0.0007552   0.0268031   0.8887435  -0.0400976  -0.0003694
   10   0.0349426  -0.0159581   0.0108454  -0.0100198   0.8504014   0.0021843
   11   1.4383335  -0.0687237  -0.0303880   0.1618406   1.4245877  -0.0014901
   12   0.3937412   0.1497332  -0.0479844   0.1288803   0.4037733  -0.0134138
   13   0.0148811  -0.0000562  -0.0039305   0.0021730  -0.0065148   0.0008236
   14  -0.0042877   0.0006275   0.0037387   0.0045836  -0.0063497   0.0006300
   15   0.0002283  -0.0006709  -0.0002381  -0.0015279   0.0038024   0.0004674
   16   0.0215089   0.0054672  -0.0006234  -0.0052146  -0.0104718   0.0023849
   17   0.0000142   0.0000665  -0.0000286   0.0001590  -0.0001001  -0.0000146
   18   0.0000215   0.0000642  -0.0000292   0.0001597  -0.0001027  -0.0000144
   19   0.0000059  -0.0000288  -0.0000120   0.0001041   0.0001983  -0.0000260
   20   0.0020725   0.0013263  -0.0000385  -0.0010393   0.0003103  -0.0000486
   21  -0.0048498  -0.0007742  -0.0014638   0.0026286   0.0079297   0.0006558
   22  -0.0049163  -0.0007826  -0.0014422   0.0026232   0.0079043   0.0006673
            7           8           9          10          11          12
    1  -0.0241129   0.0094543  -0.0123660   0.0349426   1.4383335   0.3937412
    2   0.8765334  -0.0155286   0.0007552  -0.0159581  -0.0687237   0.1497332
    3   0.0273841   0.9507035   0.0268031   0.0108454  -0.0303880  -0.0479844
    4   0.0014612   0.0092034   0.8887435  -0.0100198   0.1618406   0.1288803
    5  -0.0084283  -0.0089461  -0.0400976   0.8504014   1.4245877   0.4037733
    6   0.0005214   0.0021989  -0.0003694   0.0021843  -0.0014901  -0.0134138
    7   0.8888728  -0.0000526   0.0010397  -0.0000949   0.0134766   0.0008015
    8  -0.0000526   0.9464438   0.0007039   0.0014168  -0.0008404  -0.0017429
    9   0.0010397   0.0007039   0.9048602  -0.0002855   0.0411308  -0.0013408
   10  -0.0000949   0.0014168  -0.0002855   0.8722728   0.0068014  -0.0089203
   11   0.0134766  -0.0008404   0.0411308   0.0068014   2.5874091  -0.3945212
   12   0.0008015  -0.0017429  -0.0013408  -0.0089203  -0.3945212   0.5989571
   13   0.0003501  -0.0001086   0.0001265   0.0001513   0.0028701  -0.0145087
   14  -0.0002311  -0.0000311   0.0001920  -0.0006747   0.0078687  -0.0281873
   15  -0.0000298   0.0000554  -0.0000923   0.0006831   0.0023761  -0.0109422
   16   0.0001234   0.0000123  -0.0001181   0.0001461  -0.0103913   0.0295019
   17   0.0000110  -0.0000084   0.0000039  -0.0000118  -0.0000549  -0.0002535
   18   0.0000112  -0.0000085   0.0000040  -0.0000119  -0.0000538  -0.0002567
   19   0.0000020  -0.0000068   0.0000000  -0.0000044   0.0003364  -0.0005439
   20   0.0000313   0.0000307  -0.0000240   0.0001207  -0.0028440   0.0088356
   21   0.0000387  -0.0000306   0.0000254   0.0002815  -0.0015009   0.0031477
   22   0.0000371  -0.0000306   0.0000257   0.0002797  -0.0014042   0.0031581
           13          14          15          16          17          18
    1   0.0148811  -0.0042877   0.0002283   0.0215089   0.0000142   0.0000215
    2  -0.0000562   0.0006275  -0.0006709   0.0054672   0.0000665   0.0000642
    3  -0.0039305   0.0037387  -0.0002381  -0.0006234  -0.0000286  -0.0000292
    4   0.0021730   0.0045836  -0.0015279  -0.0052146   0.0001590   0.0001597
    5  -0.0065148  -0.0063497   0.0038024  -0.0104718  -0.0001001  -0.0001027
    6   0.0008236   0.0006300   0.0004674   0.0023849  -0.0000146  -0.0000144
    7   0.0003501  -0.0002311  -0.0000298   0.0001234   0.0000110   0.0000112
    8  -0.0001086  -0.0000311   0.0000554   0.0000123  -0.0000084  -0.0000085
    9   0.0001265   0.0001920  -0.0000923  -0.0001181   0.0000039   0.0000040
   10   0.0001513  -0.0006747   0.0006831   0.0001461  -0.0000118  -0.0000119
   11   0.0028701   0.0078687   0.0023761  -0.0103913  -0.0000549  -0.0000538
   12  -0.0145087  -0.0281873  -0.0109422   0.0295019  -0.0002535  -0.0002567
   13   1.7733437   2.0323135  -0.1166959  -0.0975978  -0.0107253  -0.0107185
   14   2.0323135   3.2614991   0.7116494   0.7162477  -0.0072592  -0.0071499
   15  -0.1166959   0.7116494   3.6208639   0.0681973   0.9750552   0.9749009
   16  -0.0975978   0.7162477   0.0681973   3.6788454  -0.0042379  -0.0042059
   17  -0.0107253  -0.0072592   0.9750552  -0.0042379   0.9132331  -0.0245100
   18  -0.0107185  -0.0071499   0.9749009  -0.0042059  -0.0245100   0.9132108
   19   0.0040598  -0.0608813   1.0110332  -0.0033814  -0.0160116  -0.0160317
   20   0.0018447  -0.0863320   0.0047370   1.0298688   0.0014654   0.0014746
   21  -0.0127134  -0.0073942  -0.0010800   0.9706855  -0.0000839  -0.0002491
   22  -0.0126804  -0.0075739  -0.0010449   0.9709437  -0.0002425  -0.0000831
           19          20          21          22
    1   0.0000059   0.0020725  -0.0048498  -0.0049163
    2  -0.0000288   0.0013263  -0.0007742  -0.0007826
    3  -0.0000120  -0.0000385  -0.0014638  -0.0014422
    4   0.0001041  -0.0010393   0.0026286   0.0026232
    5   0.0001983   0.0003103   0.0079297   0.0079043
    6  -0.0000260  -0.0000486   0.0006558   0.0006673
    7   0.0000020   0.0000313   0.0000387   0.0000371
    8  -0.0000068   0.0000307  -0.0000306  -0.0000306
    9   0.0000000  -0.0000240   0.0000254   0.0000257
   10  -0.0000044   0.0001207   0.0002815   0.0002797
   11   0.0003364  -0.0028440  -0.0015009  -0.0014042
   12  -0.0005439   0.0088356   0.0031477   0.0031581
   13   0.0040598   0.0018447  -0.0127134  -0.0126804
   14  -0.0608813  -0.0863320  -0.0073942  -0.0075739
   15   1.0110332   0.0047370  -0.0010800  -0.0010449
   16  -0.0033814   1.0298688   0.9706855   0.9709437
   17  -0.0160116   0.0014654  -0.0000839  -0.0002425
   18  -0.0160317   0.0014746  -0.0002491  -0.0000831
   19   0.9137782  -0.0093056   0.0021442   0.0021278
   20  -0.0093056   0.9114739  -0.0205268  -0.0204851
   21   0.0021442  -0.0205268   0.9075322  -0.0293382
   22   0.0021278  -0.0204851  -0.0293382   0.9077428


 JobOver = TRUE
Archival summary:
1\1\qciep03\SP\HF\BasisUnspecified\l11911\jcartus\ThuFeb112:18:482018ThuFeb112:18:482018\0\\#,HF,BasisUnspecified,\\0,1\Cl\C,1,1.73368\C,2,1.39257,1,119.687\H,3,1.0804,2,119.725,1,0,0\C,2,1.39259,1,119.347,3,180,0\H,5,1.08033,2,119.647,1,-0,0\C,5,1.39264,2,119.224,1,180,0\H,7,1.08132,5,119.385,2,180,0\C,3,1.39285,2,119.232,1,-180,0\H,9,1.08137,3,119.412,2,180,0\C,9,1.3933,3,120.434,2,-0,0\H,11,1.08083,9,120.151,3,179.999,0\O,1,3.12393,2,178.746,3,-179.239,0\C,13,1.21753,1,116.915,2,179.337,0\C,14,1.51385,13,120.515,1,0.106835,0\H,15,1.08551,14,113.207,13,179.99,0\H,15,1.08867,14,108.648,13,57.9969,0\H,15,1.08867,14,108.648,13,-58.0183,0\C,14,1.5143,13,120.407,1,-179.892,0\H,19,1.08544,14,113.297,13,-179.987,0\H,19,1.08858,14,108.609,13,58.1282,0\H,19,1.08859,14,108.607,13,-58.1021,0\\HF=-881.691381\\@

 Total job time:  659.55s(wall), 651.10s(cpu) 
 Thu Feb  1 12:18:48 2018

        *************************************************************
        *                                                           *
        *  Thank you very much for using Q-Chem.  Have a nice day.  *
        *                                                           *
        *************************************************************


*** MISSION COMPLETED -- STARFLEET OUT ***

0 sent ACK to 0 
now end server 0 ... 
