Process 0 of 1 is on qciep03 - thread support 0
initial socket setup ...start
initial socket setup ...done 
now start server 0 ... 
qciep03.tugraz.at 127.0.1
Q-Chem Developer Version! Running on 127.0.1.*
                  Welcome to Q-Chem
     A Quantum Leap Into The Future Of Chemistry


 Q-Chem 5.0, Q-Chem, Inc., Pleasanton, CA (2017)

 Yihan Shao,  Zhengting Gan,  E. Epifanovsky,  A. T. B. Gilbert,  M. Wormit,  
 J. Kussmann,  A. W. Lange,  A. Behn,  Jia Deng,  Xintian Feng,  D. Ghosh,  
 M. Goldey,  P. R. Horn,  L. D. Jacobson,  I. Kaliman,  T. Kus,  A. Landau,  
 Jie Liu,  E. I. Proynov,  R. M. Richard,  R. P. Steele,  E. J. Sundstrom,  
 H. L. Woodcock III,  P. M. Zimmerman,  D. Zuev,  B. Albrecht,  E. Alguire,  
 S. A. Baeppler,  D. Barton,  Z. Benda,  Y. A. Bernard,  E. J. Berquist,  
 K. B. Bravaya,  H. Burton,  D. Casanova,  Chun-Min Chang,  Yunqing Chen,  
 A. Chien,  K. D. Closser,  M. P. Coons,  S. Dasgupta,  A. L. Dempwolff,  
 M. Diedenhofen,  Hainam Do,  R. G. Edgar,  Po-Tung Fang,  S. Fatehi,  
 Qingguo Feng,  J. Fosso-Tande,  Qinghui Ge,  A. Ghysels,  G. Gidofalvi,  
 J. Gomes,  J. Gonthier,  A. Gunina,  M. W. D. Hanson-Heine,  
 P. H. P. Harbach,  A. W. Hauser,  J. E. Herr,  E. G. Hohenstein,  
 Z. C. Holden,  Kerwin Hui,  T.-C. Jagau,  Hyunjun Ji,  B. Kaduk,  
 K. Khistyaev,  Jaehoon Kim,  P. Klunzinger,  K. Koh,  D. Kosenkov,  
 L. Koulias,  T. Kowalczyk,  C. M. Krauter,  A. Kunitsa,  Ka Un Lao,  
 A. Laurent,  K. V. Lawler,  Joonho Lee,  D. Lefrancois,  S. Lehtola,  
 D. S. Levine,  Yi-Pei Li,  You-Sheng Lin,  Fenglai Liu,  E. Livshits,  
 A. Luenser,  P. Manohar,  E. Mansoor,  S. F. Manzer,  Shan-Ping Mao,  
 Yuezhi Mao,  N. Mardirossian,  A. V. Marenich,  T. Markovich,  
 L. A. Martinez-Martinez,  S. A. Maurer,  N. J. Mayhall,  S. C. McKenzie,  
 J.-M. Mewes,  A. F. Morrison,  J. W. Mullinax,  K. Nanda,  
 T. S. Nguyen-Beck,  R. Olivares-Amaya,  J. A. Parkhill,  T. M. Perrine,  
 F. Plasser,  S. Prager,  A. Prociuk,  E. Ramos,  D. R. Rehn,  F. Rob,  
 M. Schneider,  N. Sergueev,  S. M. Sharada,  S. Sharma,  D. W. Small,  
 T. Stauch,  T. Stein,  Yu-Chuan Su,  A. J. W. Thom,  A. Tkatchenko,  
 T. Tsuchimochi,  L. Vogt,  O. Vydrov,  M. A. Watson,  J. Wenzel,  
 M. de Wergifosse,  T. A. Wesolowski,  A. White,  J. Witte,  A. Yamada,  
 Jun Yang,  K. Yao,  S. Yeganeh,  S. R. Yost,  Zhi-Qiang You,  A. Zech,  
 Igor Ying Zhang,  Xing Zhang,  Yan Zhao,  Ying Zhu,  B. R. Brooks,  
 G. K. L. Chan,  C. J. Cramer,  M. S. Gordon,  W. J. Hehre,  A. Klamt,  
 M. W. Schmidt,  C. D. Sherrill,  D. G. Truhlar,  A. Aspuru-Guzik,  R. Baer,  
 A. T. Bell,  N. A. Besley,  Jeng-Da Chai,  R. A. DiStasio Jr.,  A. Dreuw,  
 B. D. Dunietz,  T. R. Furlani,  Chao-Ping Hsu,  Yousung Jung,  Jing Kong,  
 D. S. Lambrecht,  WanZhen Liang,  C. Ochsenfeld,  V. A. Rassolov,  
 L. V. Slipchenko,  J. E. Subotnik,  T. Van Voorhis,  J. M. Herbert,  
 A. I. Krylov,  P. M. W. Gill,  M. Head-Gordon

 Contributors to earlier versions of Q-Chem not listed above: 
 R. D. Adamson,  B. Austin,  J. Baker,  G. J. O. Beran,  K. Brandhorst,  
 S. T. Brown,  E. F. C. Byrd,  A. K. Chakraborty,  C.-L. Cheng,  
 Siu Hung Chien,  D. M. Chipman,  D. L. Crittenden,  H. Dachsel,  
 R. J. Doerksen,  A. D. Dutoi,  L. Fusti-Molnar,  W. A. Goddard III,  
 A. Golubeva-Zadorozhnaya,  S. R. Gwaltney,  G. Hawkins,  A. Heyden,  
 S. Hirata,  G. Kedziora,  F. J. Keil,  C. Kelley,  Jihan Kim,  R. A. King,  
 R. Z. Khaliullin,  P. P. Korambath,  W. Kurlancheek,  A. M. Lee,  M. S. Lee,  
 S. V. Levchenko,  Ching Yeh Lin,  D. Liotard,  R. C. Lochan,  I. Lotan,  
 P. E. Maslen,  N. Nair,  D. P. O'Neill,  D. Neuhauser,  E. Neuscamman,  
 C. M. Oana,  R. Olson,  B. Peters,  R. Peverati,  P. A. Pieniazek,  
 Y. M. Rhee,  J. Ritchie,  M. A. Rohrdanz,  E. Rosta,  N. J. Russ,  
 H. F. Schaefer III,  N. E. Schultz,  N. Shenvi,  A. C. Simmonett,  A. Sodt,  
 D. Stuck,  K. S. Thanthiriwatte,  V. Vanovschi,  Tao Wang,  A. Warshel,  
 C. F. Williams,  Q. Wu,  X. Xu,  W. Zhang

 Please cite Q-Chem as follows:
 Y. Shao et al., Mol. Phys. 113, 184-215 (2015)
 DOI: 10.1080/00268976.2014.952696

 Q-Chem 5.0.2 for Intel X86 EM64T Linux

 Parts of Q-Chem use Armadillo 5.200.1 (Boston Tea Smuggler).
 http://arma.sourceforge.net/

 Q-Chem begins on Thu Feb  1 12:11:09 2018  


Host: 0

     Scratch files written to /home/jcartus/scratch/10_chloromethane-chloromethane.dir//
 Using version located at /usr/local/qchem/bin/qchem

 Parallel job on  1  processors

Total Memory Limit in MB = 2000
Mega-Array Size in MB = 192

Checking the input file for inconsistencies... 	...done.
Finally everything over in PARseQInput

--------------------------------------------------------------
User input:
--------------------------------------------------------------
$rem
SCF_PRINT                     1
BASIS                         6-311++g**
SCF_SAVE_MATRICES             1
SCF_CONVERGENCE               5
SCF_FINAL_PRINT               1
METHOD                        hf
JOBTYPE                       sp
$end

$molecule
0 1
C    0.301152114    -0.173118099    2.764480435
Cl    -0.024870834    -0.077582132    1.017161127
H    1.247502252    0.314602623    2.964654708
H    0.346131151    -1.217442126    3.048836143
H    -0.501709016    0.328185531    3.291345152
C    -0.248215463    0.147563142    -2.354598055
Cl    -0.430872029    0.266976908    -4.12111099
H    -1.097215819    -0.394125438    -1.955018213
H    0.671578312    -0.381551292    -2.136340484
H    -0.212788793    1.148538795    -1.941709395
$end


--------------------------------------------------------------
 ----------------------------------------------------------------
             Standard Nuclear Orientation (Angstroms)
    I     Atom           X                Y                Z
 ----------------------------------------------------------------
    1      C       3.7007749852    -0.0869110856    -0.0008183729
    2      Cl      1.9279743026     0.0734643195    -0.0002553052
    3      H       3.9574865084    -1.0620235351    -0.3967662617
    4      H       4.0549492846     0.0129285796     1.0180469581
    5      H       4.1160103038     0.6957724275    -0.6240870966
    6      C      -1.4572801979    -0.0233036984     0.0043400152
    7      Cl     -3.2371550596    -0.0092068252    -0.0018059517
    8      H      -1.1054980312     0.9135929526     0.4195100347
    9      H      -1.1194480288    -0.8539930932     0.6121587340
   10      H      -1.1083958919    -0.1373660302    -1.0149508549
 ----------------------------------------------------------------
 Molecular Point Group                 C1    NOp =  1
 Largest Abelian Subgroup              C1    NOp =  1
 Nuclear Repulsion Energy =   176.5133969582 hartrees
 There are       26 alpha and       26 beta electrons
 Requested basis set is 6-311++G(d,p)
 There are 68 shells and 146 basis functions

 Total QAlloc Memory Limit   2000 MB
 Mega-Array Size       188 MB
 MEM_STATIC part       192 MB

finished with qalloc call

                       Distance Matrix (Angstroms)
             C (  1)   Cl(  2)   H (  3)   H (  4)   H (  5)   C (  6)
   Cl(  2)  1.780040
   H (  3)  1.083291  2.359126
   H (  4)  1.083279  2.358946  1.779527
   H (  5)  1.083272  2.358799  1.779509  1.779497
   C (  6)  5.158450  3.386640  5.528067  5.604783  5.654517
   Cl(  7)  6.938365  5.165791  7.281984  7.363109  7.413047  1.779941
   H (  8)  4.927265  3.175527  5.495742  5.272538  5.329230  1.083463
   H (  9)  4.919218  3.243765  5.180393  5.262194  5.598223  1.083337
   H ( 10)  4.915194  3.208364  5.186551  5.551198  5.304839  1.083367
             Cl(  7)   H (  8)   H (  9)
   H (  8)  2.360726
   H (  9)  2.361207  1.778108
   H ( 10)  2.361039  1.778258  1.777966

 Job number = 2, Threshold = 1.00E-08
Integral type ranges set in mkLRange.C for JobNum: 2  <1-21|1-21>
Symmetry turned off temporarily
 Using the largest function pair in Schwarz integrals
Total number of integrals generated =           93490
Symmetry turned back on
 A cutoff of  1.0D-08 yielded   1802 shell pairs
 There are      8374 function pairs (      8806 Cartesian)
 Job number = 11, Threshold = 1.00E-08
Integral type ranges set in mkLRange.C for JobNum: 11  <1-21|22-22>
Total number of integrals generated =           87730
 Smallest overlap matrix eigenvalue = 1.47E-04
 Multipole matrices computed through 2nd order

 Scale SEOQF with 1.000000e-01/1.000000e-01/1.000000e-01

 Standard Electronic Orientation quadrupole field applied
 Nucleus-field energy     =     0.0000000138 hartrees
 ENuRep (before)= 176.5133969582
 ENucField = 0.0000000138
 ENuRep (after) = 176.5133969720
 Guess from superposition of atomic densities
 Warning:  Energy on first SCF cycle will be non-variational
 SAD guess density has 52.000000 electrons

 ==================================================
    GEN_SCFMAN: A general SCF calculation manager  
                                                   
    Authors:                                       
        -- Eric Jon Sundstrom 2008-2014            
        -- Paul Horn 2010-2015                     
        -- Yuezhi Mao 2012-                        
        -- Dmitri Zuev 2014                        
        -- Alec White 2015-                        
        -- David Stuck 2015                        
        -- Shaama M.S. 2015                        
        -- Shane Yost 2015-                         
        -- Joonho Lee 2016-                        
        -- David Small 2016-                       
        -- Daniel Levine 2016-                     
        -- Susi Lehtola 2017-                      
        -- Hugh Burton 2017-                       
 ==================================================
 Hartree-Fock
Finding J and K together
 Job number = 22, Threshold = 1.00E-08
Integral type ranges set in mkLRange.C for JobNum: 22  <1-21|1-21>
 MakeJK  time:  CPU       2.94 s  wall       2.95 s
 HF Exchange:              -67.49146778584127
 One-Electron:             -1724.55282162885010
 Total Coulomb:            616.75724582638452
 Nuclear repulsion:        176.51339697200524
 A restricted SCF calculation will be
 performed using DIIS
 SCF converges when DIIS error is below 1.0e-05
 ---------------------------------------
  Cycle       Energy         DIIS error
 ---------------------------------------
Finding J and K together
 Job number = 22, Threshold = 1.00E-08
Integral type ranges set in mkLRange.C for JobNum: 22  <1-21|1-21>
 MakeJK  time:  CPU       7.60 s  wall       7.61 s
 HF Exchange:              -67.53838298222817
 One-Electron:             -1727.83043289831789
 Total Coulomb:            620.63406697096593
 Nuclear repulsion:        176.51339697200524
    1    -998.7736466163      4.13e-02  
Finding J and K together
 Job number = 22, Threshold = 1.00E-08
Integral type ranges set in mkLRange.C for JobNum: 22  <1-21|1-21>
 MakeJK  time:  CPU       7.62 s  wall       7.63 s
 HF Exchange:              -67.61189501764888
 One-Electron:             -1727.80550178308431
 Total Coulomb:            620.64501610109403
 Nuclear repulsion:        176.51339697200524
    2    -998.2213519376      3.46e-03  
Finding J and K together
 Job number = 22, Threshold = 1.00E-08
Integral type ranges set in mkLRange.C for JobNum: 22  <1-21|1-21>
 MakeJK  time:  CPU       7.72 s  wall       7.73 s
 HF Exchange:              -67.61621947951355
 One-Electron:             -1727.79789446135305
 Total Coulomb:            620.63581532298861
 Nuclear repulsion:        176.51339697200524
    3    -998.2589837276      1.53e-03  
Finding J and K together
 Job number = 22, Threshold = 1.00E-08
Integral type ranges set in mkLRange.C for JobNum: 22  <1-21|1-21>
 MakeJK  time:  CPU       7.65 s  wall       7.66 s
 HF Exchange:              -67.62775656945968
 One-Electron:             -1727.82879027817057
 Total Coulomb:            620.67767213937009
 Nuclear repulsion:        176.51339697200524
    4    -998.2649016459      3.52e-04  
Finding J and K together
 Job number = 22, Threshold = 1.00E-08
Integral type ranges set in mkLRange.C for JobNum: 22  <1-21|1-21>
 MakeJK  time:  CPU       7.52 s  wall       7.56 s
 HF Exchange:              -67.62750214404323
 One-Electron:             -1727.80981246627539
 Total Coulomb:            620.65841741964380
 Nuclear repulsion:        176.51339697200524
    5    -998.2654777363      5.60e-05  
Finding J and K together
 Job number = 22, Threshold = 1.00E-08
Integral type ranges set in mkLRange.C for JobNum: 22  <1-21|1-21>
 MakeJK  time:  CPU       7.50 s  wall       7.50 s
 HF Exchange:              -67.62792875499204
 One-Electron:             -1727.81286763790308
 Total Coulomb:            620.66189754925301
 Nuclear repulsion:        176.51339697200524
    6    -998.2655002187      1.51e-05  
    7    -998.2655018716      4.56e-06  Convergence criterion met
 ---------------------------------------
 SCF time:   CPU 49.26s  wall 50.00s 
 Total energy in the final basis set =     -998.2655018716
 HF Exchange:              -67.62792875499204
 One-Electron:             -1727.81286763790308
 Total Coulomb:            620.66189754925301
 Nuclear repulsion:        176.51339697200524
Wall  1 = 50
Clock 1 = 49.36189651489258
 ==================================================
                  Done GEN_SCFMAN                  
 ==================================================

Symmetry turned off temporarily

 --------------------------------------------------------------

                    Orbital Energies (a.u.)
 --------------------------------------------------------------

 Alpha MOs
 -- Occupied --
*******-104.816 -11.301 -11.281 -10.561 -10.542  -8.029  -8.026
 -8.026  -8.011  -8.008  -8.008  -1.142  -1.122  -0.928  -0.908
 -0.630  -0.630  -0.611  -0.611  -0.562  -0.536  -0.447  -0.447
 -0.428  -0.428
 -- Virtual --
  0.032   0.054   0.065   0.065   0.085   0.086   0.093   0.111
  0.144   0.145   0.156   0.157   0.159   0.168   0.170   0.186
  0.190   0.200   0.201   0.226   0.259   0.273   0.273   0.277
  0.294   0.296   0.313   0.352   0.374   0.389   0.523   0.524
  0.546   0.553   0.554   0.623   0.624   0.650   0.652   0.653
  0.693   0.823   0.824   0.847   0.848   0.858   0.889   0.899
  1.039   1.057   1.059   1.067   1.074   1.080   1.151   1.152
  1.157   1.170   1.170   1.225   1.390   1.392   1.415   1.415
  1.424   1.472   1.676   1.695   1.772   1.772   1.801   1.802
  1.977   1.978   1.994   1.995   2.007   2.076   2.243   2.285
  2.427   2.428   2.443   2.444   2.694   2.695   2.703   2.704
  2.766   2.780   2.781   2.789   2.803   2.805   2.825   2.870
  2.871   2.892   2.893   2.907   3.199   3.286   3.634   3.651
  4.114   4.114   4.133   4.133  10.452  10.468  25.020  25.043
 26.739  26.740  26.803  26.808  27.252  27.635 219.310 219.327
 --------------------------------------------------------------

          Ground-State Mulliken Net Atomic Charges

     Atom                 Charge (a.u.)
  ----------------------------------------
      1 C                    -0.545313
      2 Cl                    0.076977
      3 H                     0.175525
      4 H                     0.172979
      5 H                     0.172059
      6 C                    -0.761486
      7 Cl                    0.197750
      8 H                     0.170146
      9 H                     0.170882
     10 H                     0.170482
  ----------------------------------------
  Sum of atomic charges =     0.000000

 -----------------------------------------------------------------
                    Cartesian Multipole Moments
 -----------------------------------------------------------------
    Charge (ESU x 10^10)
                 0.0000
    Dipole Moment (Debye)
         X       4.7469      Y      -0.2244      Z       0.0066
       Tot       4.7522
    Quadrupole Moments (Debye-Ang)
        XX     -36.4913     XY      -0.6561     YY     -40.1854
        XZ      -0.0176     YZ       0.0010     ZZ     -40.1940
    Octopole Moments (Debye-Ang^2)
       XXX      92.4294    XXY      -1.5208    XYY       2.7240
       YYY      -0.4098    XXZ      -0.0190    XYZ      -0.0579
       YYZ       0.0106    XZZ       2.8055    YZZ      -0.0746
       ZZZ       0.0099
    Hexadecapole Moments (Debye-Ang^3)
      XXXX   -1691.2185   XXXY      -4.2312   XXYY    -316.7123
      XYYY      -2.4648   YYYY     -58.5312   XXXZ      -0.0216
      XXYZ      -0.5383   XYYZ      -3.8266   YYYZ       0.2132
      XXZZ    -315.9919   XYZZ       1.1668   YYZZ     -19.4672
      XZZZ       3.8199   YZZZ      -0.0719   ZZZZ     -57.8826
 -----------------------------------------------------------------
 Mayer SCF Bond Order, atomic valence on the diagonal:

            1           2           3           4           5           6
    1   3.7601151   0.9313991   0.9355372   0.9389098   0.9405469   0.0086100
    2   0.9313991   1.0115767  -0.0055796  -0.0054105  -0.0056553   0.0734821
    3   0.9355372  -0.0055796   0.8851706  -0.0236350  -0.0232533   0.0013121
    4   0.9389098  -0.0054105  -0.0236350   0.8888499  -0.0228552   0.0013063
    5   0.9405469  -0.0056553  -0.0232533  -0.0228552   0.8903990   0.0011593
    6   0.0086100   0.0734821   0.0013121   0.0013063   0.0011593   4.0027523
    7   0.0051848  -0.0020693   0.0005903   0.0003381   0.0002478   1.0289435
    8   0.0009717   0.0098972   0.0001634   0.0000483   0.0000775   0.9631441
    9  -0.0007931   0.0069728   0.0000065   0.0000432   0.0000690   0.9619239
   10  -0.0002514   0.0085402   0.0000290   0.0001050   0.0000623   0.9628711
            7           8           9          10
    1   0.0051848   0.0009717  -0.0007931  -0.0002514
    2  -0.0020693   0.0098972   0.0069728   0.0085402
    3   0.0005903   0.0001634   0.0000065   0.0000290
    4   0.0003381   0.0000483   0.0000432   0.0001050
    5   0.0002478   0.0000775   0.0000690   0.0000623
    6   1.0289435   0.9631441   0.9619239   0.9628711
    7   0.9852839  -0.0204035  -0.0117086  -0.0158392
    8  -0.0204035   0.9038633  -0.0252060  -0.0248293
    9  -0.0117086  -0.0252060   0.9055617  -0.0257461
   10  -0.0158392  -0.0248293  -0.0257461   0.9049415


 JobOver = TRUE
Archival summary:
1\1\qciep03\SP\HF\BasisUnspecified\l226\jcartus\ThuFeb112:11:592018ThuFeb112:11:592018\0\\#,HF,BasisUnspecified,\\0,1\Cl\C,1,1.78004\H,2,1.08327,1,108.472\H,2,1.08328,1,108.483,3,119.992,0\H,2,1.08329,1,108.495,3,-120,0\H,1,3.17553,2,167.228,3,-73.9611,0\C,6,1.08346,1,91.7611,2,-167.072,0\H,7,1.08334,6,110.293,1,62.1988,0\H,7,1.08337,6,110.304,1,-59.8722,0\Cl,7,1.77994,6,108.611,1,-178.832,0\\HF=-998.265502\\@

 Total job time:  49.93s(wall), 49.81s(cpu) 
 Thu Feb  1 12:11:59 2018

        *************************************************************
        *                                                           *
        *  Thank you very much for using Q-Chem.  Have a nice day.  *
        *                                                           *
        *************************************************************


*** MISSION COMPLETED -- STARFLEET OUT ***

0 sent ACK to 0 
now end server 0 ... 
