Process 0 of 1 is on qciep03 - thread support 0
initial socket setup ...start
initial socket setup ...done 
now start server 0 ... 
qciep03.tugraz.at 127.0.1
Q-Chem Developer Version! Running on 127.0.1.*
                  Welcome to Q-Chem
     A Quantum Leap Into The Future Of Chemistry


 Q-Chem 5.0, Q-Chem, Inc., Pleasanton, CA (2017)

 Yihan Shao,  Zhengting Gan,  E. Epifanovsky,  A. T. B. Gilbert,  M. Wormit,  
 J. Kussmann,  A. W. Lange,  A. Behn,  Jia Deng,  Xintian Feng,  D. Ghosh,  
 M. Goldey,  P. R. Horn,  L. D. Jacobson,  I. Kaliman,  T. Kus,  A. Landau,  
 Jie Liu,  E. I. Proynov,  R. M. Richard,  R. P. Steele,  E. J. Sundstrom,  
 H. L. Woodcock III,  P. M. Zimmerman,  D. Zuev,  B. Albrecht,  E. Alguire,  
 S. A. Baeppler,  D. Barton,  Z. Benda,  Y. A. Bernard,  E. J. Berquist,  
 K. B. Bravaya,  H. Burton,  D. Casanova,  Chun-Min Chang,  Yunqing Chen,  
 A. Chien,  K. D. Closser,  M. P. Coons,  S. Dasgupta,  A. L. Dempwolff,  
 M. Diedenhofen,  Hainam Do,  R. G. Edgar,  Po-Tung Fang,  S. Fatehi,  
 Qingguo Feng,  J. Fosso-Tande,  Qinghui Ge,  A. Ghysels,  G. Gidofalvi,  
 J. Gomes,  J. Gonthier,  A. Gunina,  M. W. D. Hanson-Heine,  
 P. H. P. Harbach,  A. W. Hauser,  J. E. Herr,  E. G. Hohenstein,  
 Z. C. Holden,  Kerwin Hui,  T.-C. Jagau,  Hyunjun Ji,  B. Kaduk,  
 K. Khistyaev,  Jaehoon Kim,  P. Klunzinger,  K. Koh,  D. Kosenkov,  
 L. Koulias,  T. Kowalczyk,  C. M. Krauter,  A. Kunitsa,  Ka Un Lao,  
 A. Laurent,  K. V. Lawler,  Joonho Lee,  D. Lefrancois,  S. Lehtola,  
 D. S. Levine,  Yi-Pei Li,  You-Sheng Lin,  Fenglai Liu,  E. Livshits,  
 A. Luenser,  P. Manohar,  E. Mansoor,  S. F. Manzer,  Shan-Ping Mao,  
 Yuezhi Mao,  N. Mardirossian,  A. V. Marenich,  T. Markovich,  
 L. A. Martinez-Martinez,  S. A. Maurer,  N. J. Mayhall,  S. C. McKenzie,  
 J.-M. Mewes,  A. F. Morrison,  J. W. Mullinax,  K. Nanda,  
 T. S. Nguyen-Beck,  R. Olivares-Amaya,  J. A. Parkhill,  T. M. Perrine,  
 F. Plasser,  S. Prager,  A. Prociuk,  E. Ramos,  D. R. Rehn,  F. Rob,  
 M. Schneider,  N. Sergueev,  S. M. Sharada,  S. Sharma,  D. W. Small,  
 T. Stauch,  T. Stein,  Yu-Chuan Su,  A. J. W. Thom,  A. Tkatchenko,  
 T. Tsuchimochi,  L. Vogt,  O. Vydrov,  M. A. Watson,  J. Wenzel,  
 M. de Wergifosse,  T. A. Wesolowski,  A. White,  J. Witte,  A. Yamada,  
 Jun Yang,  K. Yao,  S. Yeganeh,  S. R. Yost,  Zhi-Qiang You,  A. Zech,  
 Igor Ying Zhang,  Xing Zhang,  Yan Zhao,  Ying Zhu,  B. R. Brooks,  
 G. K. L. Chan,  C. J. Cramer,  M. S. Gordon,  W. J. Hehre,  A. Klamt,  
 M. W. Schmidt,  C. D. Sherrill,  D. G. Truhlar,  A. Aspuru-Guzik,  R. Baer,  
 A. T. Bell,  N. A. Besley,  Jeng-Da Chai,  R. A. DiStasio Jr.,  A. Dreuw,  
 B. D. Dunietz,  T. R. Furlani,  Chao-Ping Hsu,  Yousung Jung,  Jing Kong,  
 D. S. Lambrecht,  WanZhen Liang,  C. Ochsenfeld,  V. A. Rassolov,  
 L. V. Slipchenko,  J. E. Subotnik,  T. Van Voorhis,  J. M. Herbert,  
 A. I. Krylov,  P. M. W. Gill,  M. Head-Gordon

 Contributors to earlier versions of Q-Chem not listed above: 
 R. D. Adamson,  B. Austin,  J. Baker,  G. J. O. Beran,  K. Brandhorst,  
 S. T. Brown,  E. F. C. Byrd,  A. K. Chakraborty,  C.-L. Cheng,  
 Siu Hung Chien,  D. M. Chipman,  D. L. Crittenden,  H. Dachsel,  
 R. J. Doerksen,  A. D. Dutoi,  L. Fusti-Molnar,  W. A. Goddard III,  
 A. Golubeva-Zadorozhnaya,  S. R. Gwaltney,  G. Hawkins,  A. Heyden,  
 S. Hirata,  G. Kedziora,  F. J. Keil,  C. Kelley,  Jihan Kim,  R. A. King,  
 R. Z. Khaliullin,  P. P. Korambath,  W. Kurlancheek,  A. M. Lee,  M. S. Lee,  
 S. V. Levchenko,  Ching Yeh Lin,  D. Liotard,  R. C. Lochan,  I. Lotan,  
 P. E. Maslen,  N. Nair,  D. P. O'Neill,  D. Neuhauser,  E. Neuscamman,  
 C. M. Oana,  R. Olson,  B. Peters,  R. Peverati,  P. A. Pieniazek,  
 Y. M. Rhee,  J. Ritchie,  M. A. Rohrdanz,  E. Rosta,  N. J. Russ,  
 H. F. Schaefer III,  N. E. Schultz,  N. Shenvi,  A. C. Simmonett,  A. Sodt,  
 D. Stuck,  K. S. Thanthiriwatte,  V. Vanovschi,  Tao Wang,  A. Warshel,  
 C. F. Williams,  Q. Wu,  X. Xu,  W. Zhang

 Please cite Q-Chem as follows:
 Y. Shao et al., Mol. Phys. 113, 184-215 (2015)
 DOI: 10.1080/00268976.2014.952696

 Q-Chem 5.0.2 for Intel X86 EM64T Linux

 Parts of Q-Chem use Armadillo 5.200.1 (Boston Tea Smuggler).
 http://arma.sourceforge.net/

 Q-Chem begins on Thu Jan 25 17:41:21 2018  


Host: 0

     Scratch files written to /home/jcartus/scratch/Water-dimer_mono1.dir//
 Using version located at /usr/local/qchem/bin/qchem

 Parallel job on  1  processors

Total Memory Limit in MB = 2000
Mega-Array Size in MB = 192

Checking the input file for inconsistencies... 	...done.
Finally everything over in PARseQInput

--------------------------------------------------------------
User input:
--------------------------------------------------------------
$rem
SCF_PRINT                     1
BASIS                         6-311++g**
SCF_SAVE_MATRICES             1
SCF_CONVERGENCE               5
SCF_FINAL_PRINT               1
METHOD                        hf
JOBTYPE                       sp
$end

$molecule
0 1
O    1.350625    0.111469    0.0
H    1.680398    -0.373741    -0.758561
H    1.680398    -0.373741    0.758561
$end


--------------------------------------------------------------
 I, IOp=           1           2  D=   2.7153879308198765E-017 Fix sym
 I, IOp=           1           3  D=   0.0000000000000000      Fix sym
 I, IOp=           1           4  D=   2.7153879308198765E-017 Fix sym
 I,J,IOp=           2           3           2  D=   2.2315206618374916E-015 Fix sym
 I, IOp=           2           3  D=   2.2204460492503131E-015 Fix sym
 ----------------------------------------------------------------
             Standard Nuclear Orientation (Angstroms)
    I     Atom           X                Y                Z
 ----------------------------------------------------------------
    1      O      -0.0000000000    -0.0000000000     0.1173335375
    2      H      -0.7585610000     0.0000000000    -0.4693341500
    3      H       0.7585610000     0.0000000000    -0.4693341500
 ----------------------------------------------------------------
 Molecular Point Group                 C2v   NOp =  4
 Largest Abelian Subgroup              C2v   NOp =  4
 Nuclear Repulsion Energy =     9.1780389432 hartrees
 There are        5 alpha and        5 beta electrons
 Requested basis set is 6-311++G(d,p)
 There are 16 shells and 36 basis functions

 Total QAlloc Memory Limit   2000 MB
 Mega-Array Size       188 MB
 MEM_STATIC part       192 MB

finished with qalloc call

                       Distance Matrix (Angstroms)
             O (  1)   H (  2)
   H (  2)  0.958955
   H (  3)  0.958955  1.517122

 Job number = 2, Threshold = 1.00E-08
Integral type ranges set in mkLRange.C for JobNum: 2  <1-21|1-21>
Symmetry turned off temporarily
 Using the largest function pair in Schwarz integrals
Total number of integrals generated =            9310
Symmetry turned back on
 A cutoff of  1.0D-08 yielded    136 shell pairs
 There are       706 function pairs (       748 Cartesian)
 Job number = 11, Threshold = 1.00E-08
Integral type ranges set in mkLRange.C for JobNum: 11  <1-21|22-22>
Total number of integrals generated =            1614
 Smallest overlap matrix eigenvalue = 3.47E-03
 Multipole matrices computed through 2nd order

 Scale SEOQF with 1.000000e+00/1.000000e+00/1.000000e+00

 Standard Electronic Orientation quadrupole field applied
 Nucleus-field energy     =    -0.0000000002 hartrees
 ENuRep (before)= 9.1780389432
 ENucField = -0.0000000002
 ENuRep (after) = 9.1780389431
 Guess from superposition of atomic densities
 Warning:  Energy on first SCF cycle will be non-variational
 SAD guess density has 10.000000 electrons

 ==================================================
    GEN_SCFMAN: A general SCF calculation manager  
                                                   
    Authors:                                       
        -- Eric Jon Sundstrom 2008-2014            
        -- Paul Horn 2010-2015                     
        -- Yuezhi Mao 2012-                        
        -- Dmitri Zuev 2014                        
        -- Alec White 2015-                        
        -- David Stuck 2015                        
        -- Shaama M.S. 2015                        
        -- Shane Yost 2015-                         
        -- Joonho Lee 2016-                        
        -- David Small 2016-                       
        -- Daniel Levine 2016-                     
        -- Susi Lehtola 2017-                      
        -- Hugh Burton 2017-                       
 ==================================================
 Hartree-Fock
Finding J and K together
 Job number = 22, Threshold = 1.00E-08
Integral type ranges set in mkLRange.C for JobNum: 22  <1-21|1-21>
 MakeJK  time:  CPU       0.12 s  wall       0.12 s
 HF Exchange:               -8.66270078755331
 One-Electron:             -121.77634818297942
 Total Coulomb:             45.33493272113486
 Nuclear repulsion:          9.17803894305479
 A restricted SCF calculation will be
 performed using DIIS
 SCF converges when DIIS error is below 1.0e-05
 ---------------------------------------
  Cycle       Energy         DIIS error
 ---------------------------------------
Finding J and K together
 Job number = 22, Threshold = 1.00E-08
Integral type ranges set in mkLRange.C for JobNum: 22  <1-21|1-21>
 MakeJK  time:  CPU       0.13 s  wall       0.13 s
 HF Exchange:               -9.05746945542484
 One-Electron:             -123.92096322036386
 Total Coulomb:             47.78125102570787
 Nuclear repulsion:          9.17803894305479
    1     -75.9260773063      9.53e-02  
Finding J and K together
 Job number = 22, Threshold = 1.00E-08
Integral type ranges set in mkLRange.C for JobNum: 22  <1-21|1-21>
 MakeJK  time:  CPU       0.13 s  wall       0.13 s
 HF Exchange:               -8.84447986345547
 One-Electron:             -122.30631298621337
 Total Coulomb:             45.92903077568514
 Nuclear repulsion:          9.17803894305479
    2     -76.0191427070      1.60e-02  
Finding J and K together
 Job number = 22, Threshold = 1.00E-08
Integral type ranges set in mkLRange.C for JobNum: 22  <1-21|1-21>
 MakeJK  time:  CPU       0.13 s  wall       0.13 s
 HF Exchange:               -8.94395165408838
 One-Electron:             -123.02880670391359
 Total Coulomb:             46.74216213915212
 Nuclear repulsion:          9.17803894305479
    3     -76.0437231309      9.38e-03  
Finding J and K together
 Job number = 22, Threshold = 1.00E-08
Integral type ranges set in mkLRange.C for JobNum: 22  <1-21|1-21>
 MakeJK  time:  CPU       0.14 s  wall       0.14 s
 HF Exchange:               -8.93952831177016
 One-Electron:             -122.98534569840611
 Total Coulomb:             46.69412184478906
 Nuclear repulsion:          9.17803894305479
    4     -76.0525572758      9.54e-04  
Finding J and K together
 Job number = 22, Threshold = 1.00E-08
Integral type ranges set in mkLRange.C for JobNum: 22  <1-21|1-21>
 MakeJK  time:  CPU       0.14 s  wall       0.14 s
 HF Exchange:               -8.94102488760910
 One-Electron:             -122.99156808480359
 Total Coulomb:             46.70182614742399
 Nuclear repulsion:          9.17803894305479
    5     -76.0527132223      2.38e-04  
Finding J and K together
 Job number = 22, Threshold = 1.00E-08
Integral type ranges set in mkLRange.C for JobNum: 22  <1-21|1-21>
 MakeJK  time:  CPU       0.13 s  wall       0.13 s
 HF Exchange:               -8.94110443682474
 One-Electron:             -122.99141419680838
 Total Coulomb:             46.70175121225911
 Nuclear repulsion:          9.17803894305479
    6     -76.0527278819      3.94e-05  
    7     -76.0527284783      8.21e-06  Convergence criterion met
 ---------------------------------------
 SCF time:   CPU 0.94s  wall 1.00s 
 Total energy in the final basis set =      -76.0527284783
 HF Exchange:               -8.94110443682474
 One-Electron:             -122.99141419680838
 Total Coulomb:             46.70175121225911
 Nuclear repulsion:          9.17803894305479
Wall  1 = 1
Clock 1 = 0.94287300109863
 ==================================================
                  Done GEN_SCFMAN                  
 ==================================================

Symmetry turned off temporarily

 --------------------------------------------------------------
             Orbital Energies (a.u.) and Symmetries
 --------------------------------------------------------------

 Alpha MOs, Restricted
 -- Occupied --                  
-20.567  -1.355  -0.720  -0.584  -0.510
  1 A1    2 A1    1 B1    3 A1    1 B2                                         
 -- Virtual --                   
  0.043   0.072   0.242   0.246   0.248   0.260   0.319   0.324
  4 A1    2 B1    5 A1    2 B2    6 A1    3 B1    4 B1    7 A1                 
  0.683   0.736   1.200   1.244   1.247   1.466   1.505   1.612
  5 B1    8 A1    9 A1    3 B2    6 B1   10 A1    1 A2   11 A1                 
  1.714   1.932   2.303   2.455   2.710   2.877   3.483   3.535
  4 B2    7 B1    8 B1   12 A1   13 A1    9 B1    5 B2    2 A2                 
  3.710   4.085   4.331   5.490   5.876   6.196  51.569
 14 A1   15 A1   10 B1    6 B2   16 A1   11 B1   17 A1                         

 Beta MOs, Restricted
 -- Occupied --                  
-20.567  -1.355  -0.720  -0.584  -0.510
  1 A1    2 A1    1 B1    3 A1    1 B2                                         
 -- Virtual --                   
  0.043   0.072   0.242   0.246   0.248   0.260   0.319   0.324
  4 A1    2 B1    5 A1    2 B2    6 A1    3 B1    4 B1    7 A1                 
  0.683   0.736   1.200   1.244   1.247   1.466   1.505   1.612
  5 B1    8 A1    9 A1    3 B2    6 B1   10 A1    1 A2   11 A1                 
  1.714   1.932   2.303   2.455   2.710   2.877   3.483   3.535
  4 B2    7 B1    8 B1   12 A1   13 A1    9 B1    5 B2    2 A2                 
  3.710   4.085   4.331   5.490   5.876   6.196  51.569
 14 A1   15 A1   10 B1    6 B2   16 A1   11 B1   17 A1                         
 --------------------------------------------------------------

          Ground-State Mulliken Net Atomic Charges

     Atom                 Charge (a.u.)
  ----------------------------------------
      1 O                    -0.512107
      2 H                     0.256054
      3 H                     0.256054
  ----------------------------------------
  Sum of atomic charges =    -0.000000

 -----------------------------------------------------------------
                    Cartesian Multipole Moments
 -----------------------------------------------------------------
    Charge (ESU x 10^10)
                -0.0000
    Dipole Moment (Debye)
         X       0.0000      Y      -0.0000      Z      -2.2403
       Tot       2.2403
    Quadrupole Moments (Debye-Ang)
        XX      -4.2444     XY       0.0000     YY      -7.5640
        XZ      -0.0000     YZ      -0.0000     ZZ      -6.2946
    Octopole Moments (Debye-Ang^2)
       XXX       0.0000    XXY      -0.0000    XYY       0.0000
       YYY      -0.0000    XXZ      -1.4416    XYZ       0.0000
       YYZ      -0.4388    XZZ       0.0000    YZZ      -0.0000
       ZZZ      -1.5598
    Hexadecapole Moments (Debye-Ang^3)
      XXXX      -5.9224   XXXY       0.0000   XXYY      -2.4046
      XYYY       0.0000   YYYY      -6.6592   XXXZ      -0.0000
      XXYZ      -0.0000   XYYZ      -0.0000   YYYZ      -0.0000
      XXZZ      -1.8432   XYZZ       0.0000   YYZZ      -2.3782
      XZZZ      -0.0000   YZZZ      -0.0000   ZZZZ      -7.2608
 -----------------------------------------------------------------
 Mayer SCF Bond Order, atomic valence on the diagonal:

            1           2           3
    1   1.9306575   0.9653287   0.9653287
    2   0.9653287   0.9746321   0.0093034
    3   0.9653287   0.0093034   0.9746321


 JobOver = TRUE
Archival summary:
1\1\qciep03\SP\HF\BasisUnspecified\12\jcartus\ThuJan2517:41:222018ThuJan2517:41:222018\0\\#,HF,BasisUnspecified,\\0,1\O\H,1,0.958955\H,1,0.958955,2,104.564\\HF=-76.0527285\\@

 Total job time:  1.10s(wall), 1.04s(cpu) 
 Thu Jan 25 17:41:22 2018

        *************************************************************
        *                                                           *
        *  Thank you very much for using Q-Chem.  Have a nice day.  *
        *                                                           *
        *************************************************************


*** MISSION COMPLETED -- STARFLEET OUT ***

0 sent ACK to 0 
now end server 0 ... 
