Process 0 of 1 is on qciep03 - thread support 0
initial socket setup ...start
initial socket setup ...done 
now start server 0 ... 
qciep03.tugraz.at 127.0.1
Q-Chem Developer Version! Running on 127.0.1.*
                  Welcome to Q-Chem
     A Quantum Leap Into The Future Of Chemistry


 Q-Chem 5.0, Q-Chem, Inc., Pleasanton, CA (2017)

 Yihan Shao,  Zhengting Gan,  E. Epifanovsky,  A. T. B. Gilbert,  M. Wormit,  
 J. Kussmann,  A. W. Lange,  A. Behn,  Jia Deng,  Xintian Feng,  D. Ghosh,  
 M. Goldey,  P. R. Horn,  L. D. Jacobson,  I. Kaliman,  T. Kus,  A. Landau,  
 Jie Liu,  E. I. Proynov,  R. M. Richard,  R. P. Steele,  E. J. Sundstrom,  
 H. L. Woodcock III,  P. M. Zimmerman,  D. Zuev,  B. Albrecht,  E. Alguire,  
 S. A. Baeppler,  D. Barton,  Z. Benda,  Y. A. Bernard,  E. J. Berquist,  
 K. B. Bravaya,  H. Burton,  D. Casanova,  Chun-Min Chang,  Yunqing Chen,  
 A. Chien,  K. D. Closser,  M. P. Coons,  S. Dasgupta,  A. L. Dempwolff,  
 M. Diedenhofen,  Hainam Do,  R. G. Edgar,  Po-Tung Fang,  S. Fatehi,  
 Qingguo Feng,  J. Fosso-Tande,  Qinghui Ge,  A. Ghysels,  G. Gidofalvi,  
 J. Gomes,  J. Gonthier,  A. Gunina,  M. W. D. Hanson-Heine,  
 P. H. P. Harbach,  A. W. Hauser,  J. E. Herr,  E. G. Hohenstein,  
 Z. C. Holden,  Kerwin Hui,  T.-C. Jagau,  Hyunjun Ji,  B. Kaduk,  
 K. Khistyaev,  Jaehoon Kim,  P. Klunzinger,  K. Koh,  D. Kosenkov,  
 L. Koulias,  T. Kowalczyk,  C. M. Krauter,  A. Kunitsa,  Ka Un Lao,  
 A. Laurent,  K. V. Lawler,  Joonho Lee,  D. Lefrancois,  S. Lehtola,  
 D. S. Levine,  Yi-Pei Li,  You-Sheng Lin,  Fenglai Liu,  E. Livshits,  
 A. Luenser,  P. Manohar,  E. Mansoor,  S. F. Manzer,  Shan-Ping Mao,  
 Yuezhi Mao,  N. Mardirossian,  A. V. Marenich,  T. Markovich,  
 L. A. Martinez-Martinez,  S. A. Maurer,  N. J. Mayhall,  S. C. McKenzie,  
 J.-M. Mewes,  A. F. Morrison,  J. W. Mullinax,  K. Nanda,  
 T. S. Nguyen-Beck,  R. Olivares-Amaya,  J. A. Parkhill,  T. M. Perrine,  
 F. Plasser,  S. Prager,  A. Prociuk,  E. Ramos,  D. R. Rehn,  F. Rob,  
 M. Schneider,  N. Sergueev,  S. M. Sharada,  S. Sharma,  D. W. Small,  
 T. Stauch,  T. Stein,  Yu-Chuan Su,  A. J. W. Thom,  A. Tkatchenko,  
 T. Tsuchimochi,  L. Vogt,  O. Vydrov,  M. A. Watson,  J. Wenzel,  
 M. de Wergifosse,  T. A. Wesolowski,  A. White,  J. Witte,  A. Yamada,  
 Jun Yang,  K. Yao,  S. Yeganeh,  S. R. Yost,  Zhi-Qiang You,  A. Zech,  
 Igor Ying Zhang,  Xing Zhang,  Yan Zhao,  Ying Zhu,  B. R. Brooks,  
 G. K. L. Chan,  C. J. Cramer,  M. S. Gordon,  W. J. Hehre,  A. Klamt,  
 M. W. Schmidt,  C. D. Sherrill,  D. G. Truhlar,  A. Aspuru-Guzik,  R. Baer,  
 A. T. Bell,  N. A. Besley,  Jeng-Da Chai,  R. A. DiStasio Jr.,  A. Dreuw,  
 B. D. Dunietz,  T. R. Furlani,  Chao-Ping Hsu,  Yousung Jung,  Jing Kong,  
 D. S. Lambrecht,  WanZhen Liang,  C. Ochsenfeld,  V. A. Rassolov,  
 L. V. Slipchenko,  J. E. Subotnik,  T. Van Voorhis,  J. M. Herbert,  
 A. I. Krylov,  P. M. W. Gill,  M. Head-Gordon

 Contributors to earlier versions of Q-Chem not listed above: 
 R. D. Adamson,  B. Austin,  J. Baker,  G. J. O. Beran,  K. Brandhorst,  
 S. T. Brown,  E. F. C. Byrd,  A. K. Chakraborty,  C.-L. Cheng,  
 Siu Hung Chien,  D. M. Chipman,  D. L. Crittenden,  H. Dachsel,  
 R. J. Doerksen,  A. D. Dutoi,  L. Fusti-Molnar,  W. A. Goddard III,  
 A. Golubeva-Zadorozhnaya,  S. R. Gwaltney,  G. Hawkins,  A. Heyden,  
 S. Hirata,  G. Kedziora,  F. J. Keil,  C. Kelley,  Jihan Kim,  R. A. King,  
 R. Z. Khaliullin,  P. P. Korambath,  W. Kurlancheek,  A. M. Lee,  M. S. Lee,  
 S. V. Levchenko,  Ching Yeh Lin,  D. Liotard,  R. C. Lochan,  I. Lotan,  
 P. E. Maslen,  N. Nair,  D. P. O'Neill,  D. Neuhauser,  E. Neuscamman,  
 C. M. Oana,  R. Olson,  B. Peters,  R. Peverati,  P. A. Pieniazek,  
 Y. M. Rhee,  J. Ritchie,  M. A. Rohrdanz,  E. Rosta,  N. J. Russ,  
 H. F. Schaefer III,  N. E. Schultz,  N. Shenvi,  A. C. Simmonett,  A. Sodt,  
 D. Stuck,  K. S. Thanthiriwatte,  V. Vanovschi,  Tao Wang,  A. Warshel,  
 C. F. Williams,  Q. Wu,  X. Xu,  W. Zhang

 Please cite Q-Chem as follows:
 Y. Shao et al., Mol. Phys. 113, 184-215 (2015)
 DOI: 10.1080/00268976.2014.952696

 Q-Chem 5.0.2 for Intel X86 EM64T Linux

 Parts of Q-Chem use Armadillo 5.200.1 (Boston Tea Smuggler).
 http://arma.sourceforge.net/

 Q-Chem begins on Thu Feb  1 12:05:08 2018  


Host: 0

     Scratch files written to /home/jcartus/scratch/20_benBr-acetone_mono2.dir//
 Using version located at /usr/local/qchem/bin/qchem

 Parallel job on  1  processors

Total Memory Limit in MB = 2000
Mega-Array Size in MB = 192

Checking the input file for inconsistencies... 	...done.
Finally everything over in PARseQInput

--------------------------------------------------------------
User input:
--------------------------------------------------------------
$rem
SCF_PRINT                     1
BASIS                         6-311++g**
SCF_SAVE_MATRICES             1
SCF_CONVERGENCE               5
SCF_FINAL_PRINT               1
METHOD                        hf
JOBTYPE                       sp
$end

$molecule
0 1
O    -3.785037609    0.000866982    -3.641619578
C    -4.942504639    0.030472744    -3.262526217
C    -5.268278522    0.030763181    -1.784860352
C    -6.074813789    0.067570401    -4.266102134
H    -5.949425709    0.944115224    -4.899332013
H    -5.998004094    -0.807301293    -4.909325767
H    -7.056301133    0.092128453    -3.803511947
H    -6.334373655    0.058880289    -1.583055978
H    -4.834292873    -0.858956293    -1.331613097
H    -4.786131398    0.889881839    -1.321375004
$end


--------------------------------------------------------------
 ----------------------------------------------------------------
             Standard Nuclear Orientation (Angstroms)
    I     Atom           X                Y                Z
 ----------------------------------------------------------------
    1      O       0.0039560663    -1.3756539102    -0.0000013425
    2      C      -0.0003585993    -0.1573355666    -0.0000177422
    3      C      -1.3060742330     0.6073420118     0.0000090093
    4      C       1.3032160964     0.6116624052     0.0000075935
    5      H       1.8794631991     0.3188535858     0.8759273096
    6      H       1.8792745919     0.3193113845    -0.8761912097
    7      H       1.1652701630     1.6881757733     0.0002782170
    8      H      -1.1698300751     1.6841483723    -0.0000254434
    9      H      -1.8832870355     0.3123889678    -0.8747512107
   10      H      -1.8832389590     0.3123400959     0.8747799132
 ----------------------------------------------------------------
 Molecular Point Group                 C1    NOp =  1
 Largest Abelian Subgroup              C1    NOp =  1
 Nuclear Repulsion Energy =   119.3710330350 hartrees
 There are       16 alpha and       16 beta electrons
 Requested basis set is 6-311++G(d,p)
 There are 54 shells and 130 basis functions

 Total QAlloc Memory Limit   2000 MB
 Mega-Array Size       188 MB
 MEM_STATIC part       192 MB

finished with qalloc call

                       Distance Matrix (Angstroms)
             O (  1)   C (  2)   C (  3)   C (  4)   H (  5)   H (  6)
   C (  2)  1.218326
   C (  3)  2.376647  1.513151
   C (  4)  2.374343  1.513494  2.609294
   H (  5)  2.675095  2.127855  3.316339  1.088592
   H (  6)  2.675338  2.127885  3.316193  1.088594  1.752119
   H (  7)  3.276538  2.182797  2.697359  1.085316  1.775352  1.775328
   H (  8)  3.277219  2.181451  1.085391  2.695586  3.453913  3.453619
   H (  9)  2.678873  2.128666  1.088750  3.317916  4.150085  3.762568
   H ( 10)  2.678819  2.128639  1.088747  3.317878  3.762708  4.149995
             H (  7)   H (  8)   H (  9)
   H (  8)  2.335104
   H (  9)  3.457191  1.776482
   H ( 10)  3.457034  1.776540  1.749531

 Job number = 2, Threshold = 1.00E-08
Integral type ranges set in mkLRange.C for JobNum: 2  <1-21|1-21>
Symmetry turned off temporarily
 Using the largest function pair in Schwarz integrals
Total number of integrals generated =          119290
Symmetry turned back on
 A cutoff of  1.0D-08 yielded   1410 shell pairs
 There are      8390 function pairs (      8938 Cartesian)
 Job number = 11, Threshold = 1.00E-08
Integral type ranges set in mkLRange.C for JobNum: 11  <1-21|22-22>
Total number of integrals generated =           89380
 Smallest overlap matrix eigenvalue = 7.93E-05

 Q-Chem warning in module /usr/local/qchem/stvman/mkSTV.C, line 295:

 Overlap eigenvalue is smaller than square root of threshold

 Multipole matrices computed through 2nd order

 Scale SEOQF with 1.000000e-01/1.000000e-01/1.000000e-01

 Standard Electronic Orientation quadrupole field applied
 Nucleus-field energy     =     0.0000000028 hartrees
 ENuRep (before)= 119.3710330350
 ENucField = 0.0000000028
 ENuRep (after) = 119.3710330379
 Guess from superposition of atomic densities
 Warning:  Energy on first SCF cycle will be non-variational
 SAD guess density has 32.000000 electrons

 ==================================================
    GEN_SCFMAN: A general SCF calculation manager  
                                                   
    Authors:                                       
        -- Eric Jon Sundstrom 2008-2014            
        -- Paul Horn 2010-2015                     
        -- Yuezhi Mao 2012-                        
        -- Dmitri Zuev 2014                        
        -- Alec White 2015-                        
        -- David Stuck 2015                        
        -- Shaama M.S. 2015                        
        -- Shane Yost 2015-                         
        -- Joonho Lee 2016-                        
        -- David Small 2016-                       
        -- Daniel Levine 2016-                     
        -- Susi Lehtola 2017-                      
        -- Hugh Burton 2017-                       
 ==================================================
 Hartree-Fock
Finding J and K together
 Job number = 22, Threshold = 1.00E-08
Integral type ranges set in mkLRange.C for JobNum: 22  <1-21|1-21>
 MakeJK  time:  CPU       1.94 s  wall       2.15 s
 HF Exchange:              -26.01873296551914
 One-Electron:             -493.74340935751553
 Total Coulomb:            207.36928242299928
 Nuclear repulsion:        119.37103303786144
 A restricted SCF calculation will be
 performed using DIIS
 SCF converges when DIIS error is below 1.0e-05
 ---------------------------------------
  Cycle       Energy         DIIS error
 ---------------------------------------
Finding J and K together
 Job number = 22, Threshold = 1.00E-08
Integral type ranges set in mkLRange.C for JobNum: 22  <1-21|1-21>
 MakeJK  time:  CPU       5.94 s  wall       5.97 s
 HF Exchange:              -25.97531766551297
 One-Electron:             -497.17767854777543
 Total Coulomb:            211.87215751729954
 Nuclear repulsion:        119.37103303786144
    1    -193.0218268622      5.52e-02  
Finding J and K together
 Job number = 22, Threshold = 1.00E-08
Integral type ranges set in mkLRange.C for JobNum: 22  <1-21|1-21>
 MakeJK  time:  CPU       6.07 s  wall       6.11 s
 HF Exchange:              -25.78843921510155
 One-Electron:             -496.41079428089625
 Total Coulomb:            210.86103643531132
 Nuclear repulsion:        119.37103303786144
    2    -191.9098056581      6.86e-03  
Finding J and K together
 Job number = 22, Threshold = 1.00E-08
Integral type ranges set in mkLRange.C for JobNum: 22  <1-21|1-21>
 MakeJK  time:  CPU       6.01 s  wall       6.03 s
 HF Exchange:              -25.92462859669058
 One-Electron:             -496.84661268904682
 Total Coulomb:            211.39008645679755
 Nuclear repulsion:        119.37103303786144
    3    -191.9671640228      5.42e-03  
Finding J and K together
 Job number = 22, Threshold = 1.00E-08
Integral type ranges set in mkLRange.C for JobNum: 22  <1-21|1-21>
 MakeJK  time:  CPU       6.01 s  wall       6.06 s
 HF Exchange:              -25.93225988358553
 One-Electron:             -496.83327147964735
 Total Coulomb:            211.38251898874967
 Nuclear repulsion:        119.37103303786144
    4    -192.0101217911      6.84e-04  
Finding J and K together
 Job number = 22, Threshold = 1.00E-08
Integral type ranges set in mkLRange.C for JobNum: 22  <1-21|1-21>
 MakeJK  time:  CPU       6.04 s  wall       6.08 s
 HF Exchange:              -25.93506019147408
 One-Electron:             -496.83454448302984
 Total Coulomb:            211.38639302500158
 Nuclear repulsion:        119.37103303786144
    5    -192.0119793366      2.06e-04  
Finding J and K together
 Job number = 22, Threshold = 1.00E-08
Integral type ranges set in mkLRange.C for JobNum: 22  <1-21|1-21>
 MakeJK  time:  CPU       6.03 s  wall       6.07 s
 HF Exchange:              -25.93555397231384
 One-Electron:             -496.83097804905083
 Total Coulomb:            211.38328054171728
 Nuclear repulsion:        119.37103303786144
    6    -192.0121786116      8.11e-05  
Finding J and K together
 Job number = 22, Threshold = 1.00E-08
Integral type ranges set in mkLRange.C for JobNum: 22  <1-21|1-21>
 MakeJK  time:  CPU       5.99 s  wall       6.03 s
 HF Exchange:              -25.93585112264002
 One-Electron:             -496.83383081828617
 Total Coulomb:            211.38642412923011
 Nuclear repulsion:        119.37103303786144
    7    -192.0122184418      3.48e-05  
Finding J and K together
 Job number = 22, Threshold = 1.00E-08
Integral type ranges set in mkLRange.C for JobNum: 22  <1-21|1-21>
 MakeJK  time:  CPU       5.96 s  wall       5.97 s
 HF Exchange:              -25.93570736578015
 One-Electron:             -496.83246743792807
 Total Coulomb:            211.38491638469469
 Nuclear repulsion:        119.37103303786144
    8    -192.0122247738      1.02e-05  
    9    -192.0122253812      1.87e-06  Convergence criterion met
 ---------------------------------------
 SCF time:   CPU 50.64s  wall 51.00s 
 Total energy in the final basis set =     -192.0122253812
 HF Exchange:              -25.93570736578015
 One-Electron:             -496.83246743792807
 Total Coulomb:            211.38491638469469
 Nuclear repulsion:        119.37103303786144
Wall  1 = 51
Clock 1 = 50.71825790405273
 ==================================================
                  Done GEN_SCFMAN                  
 ==================================================

Symmetry turned off temporarily

 --------------------------------------------------------------

                    Orbital Energies (a.u.)
 --------------------------------------------------------------

 Alpha MOs
 -- Occupied --
-20.543 -11.338 -11.236 -11.236  -1.385  -1.041  -0.974  -0.744
 -0.644  -0.639  -0.621  -0.569  -0.568  -0.537  -0.479  -0.414
 -- Virtual --
  0.036   0.054   0.066   0.067   0.087   0.094   0.112   0.118
  0.141   0.149   0.167   0.172   0.178   0.185   0.191   0.206
  0.207   0.211   0.220   0.281   0.311   0.315   0.321   0.361
  0.385   0.388   0.412   0.417   0.445   0.446   0.530   0.540
  0.559   0.605   0.613   0.632   0.713   0.751   0.763   0.837
  0.856   0.859   0.876   0.890   0.897   0.940   0.950   1.012
  1.056   1.131   1.138   1.353   1.358   1.450   1.470   1.540
  1.540   1.629   1.702   1.707   1.725   1.755   1.802   1.803
  1.808   1.830   1.850   1.964   2.007   2.057   2.129   2.133
  2.166   2.191   2.277   2.406   2.451   2.471   2.543   2.633
  2.754   2.789   2.832   2.845   2.847   2.864   2.882   2.892
  2.924   2.932   3.042   3.169   3.206   3.217   3.288   3.362
  3.474   3.582   3.748   3.911   4.069   4.176   4.177   4.222
  4.272   4.567   4.695   5.622   5.776   6.285  24.951  25.103
 25.145  51.687
 --------------------------------------------------------------

          Ground-State Mulliken Net Atomic Charges

     Atom                 Charge (a.u.)
  ----------------------------------------
      1 O                    -0.353846
      2 C                     0.428020
      3 C                    -0.515275
      4 C                    -0.513911
      5 H                     0.173352
      6 H                     0.173353
      7 H                     0.130494
      8 H                     0.130567
      9 H                     0.173626
     10 H                     0.173620
  ----------------------------------------
  Sum of atomic charges =     0.000000

 -----------------------------------------------------------------
                    Cartesian Multipole Moments
 -----------------------------------------------------------------
    Charge (ESU x 10^10)
                 0.0000
    Dipole Moment (Debye)
         X      -0.0152      Y       3.4217      Z      -0.0001
       Tot       3.4217
    Quadrupole Moments (Debye-Ang)
        XX     -23.1944     XY       0.0175     YY     -30.2076
        XZ      -0.0001     YZ      -0.0002     ZZ     -24.2261
    Octopole Moments (Debye-Ang^2)
       XXX      -0.0424    XXY      -1.0716    XYY      -0.0183
       YYY       6.0348    XXZ      -0.0001    XYZ      -0.0002
       YYZ       0.0002    XZZ       0.0125    YZZ      -1.7784
       ZZZ      -0.0005
    Hexadecapole Moments (Debye-Ang^3)
      XXXX    -201.2942   XXXY       0.0207   XXYY     -61.0361
      XYYY      -0.0192   YYYY    -148.0878   XXXZ       0.0004
      XXYZ      -0.0013   XYYZ       0.0005   YYYZ       0.0006
      XXZZ     -35.5256   XYZZ       0.0123   YYZZ     -31.4840
      XZZZ      -0.0011   YZZZ      -0.0007   ZZZZ     -36.5567
 -----------------------------------------------------------------
 Mayer SCF Bond Order, atomic valence on the diagonal:

            1           2           3           4           5           6
    1   1.8312618   2.0434956  -0.0852627  -0.0863206  -0.0114913  -0.0114911
    2   2.0434956   3.4811011   0.7946448   0.7950951  -0.0048803  -0.0048542
    3  -0.0852627   0.7946448   3.7277575   0.0513535   0.0008928   0.0008976
    4  -0.0863206   0.7950951   0.0513535   3.7272013   0.9745067   0.9744729
    5  -0.0114913  -0.0048803   0.0008928   0.9745067   0.9191775  -0.0241569
    6  -0.0114911  -0.0048542   0.0008976   0.9744729  -0.0241569   0.9191730
    7   0.0025989  -0.0659661  -0.0039060   1.0200674  -0.0173504  -0.0173542
    8   0.0025473  -0.0661584   1.0203439  -0.0036990   0.0021633   0.0021658
    9  -0.0114073  -0.0051422   0.9743989   0.0008607  -0.0000612  -0.0004455
   10  -0.0114069  -0.0051333   0.9743947   0.0008647  -0.0004452  -0.0000615
            7           8           9          10
    1   0.0025989   0.0025473  -0.0114073  -0.0114069
    2  -0.0659661  -0.0661584  -0.0051422  -0.0051333
    3  -0.0039060   1.0203439   0.9743989   0.9743947
    4   1.0200674  -0.0036990   0.0008607   0.0008647
    5  -0.0173504   0.0021633  -0.0000612  -0.0004452
    6  -0.0173542   0.0021658  -0.0004455  -0.0000615
    7   0.9100606  -0.0123655   0.0021683   0.0021681
    8  -0.0123655   0.9104430  -0.0172800  -0.0172744
    9   0.0021683  -0.0172800   0.9188012  -0.0242904
   10   0.0021681  -0.0172744  -0.0242904   0.9188158


 JobOver = TRUE
Archival summary:
1\1\qciep03\SP\HF\BasisUnspecified\136\jcartus\ThuFeb112:06:002018ThuFeb112:06:002018\0\\#,HF,BasisUnspecified,\\0,1\C\O,1,1.21833\C,1,1.51315,2,120.558\H,3,1.08539,1,113.144,2,-179.999,0\H,3,1.08875,1,108.695,2,58.0164,0\H,3,1.08875,1,108.697,2,-58.0203,0\C,1,1.51349,2,120.334,3,179.997,0\H,7,1.08532,1,113.235,2,-179.983,0\H,7,1.08859,1,108.619,2,-58.1091,0\H,7,1.08859,1,108.621,2,58.1437,0\\HF=-192.012225\\@

 Total job time:  51.73s(wall), 51.10s(cpu) 
 Thu Feb  1 12:06:00 2018

        *************************************************************
        *                                                           *
        *  Thank you very much for using Q-Chem.  Have a nice day.  *
        *                                                           *
        *************************************************************


*** MISSION COMPLETED -- STARFLEET OUT ***

0 sent ACK to 0 
now end server 0 ... 
