Process 0 of 1 is on qciep03 - thread support 0
initial socket setup ...start
initial socket setup ...done 
now start server 0 ... 
qciep03.tugraz.at 127.0.1
Q-Chem Developer Version! Running on 127.0.1.*
                  Welcome to Q-Chem
     A Quantum Leap Into The Future Of Chemistry


 Q-Chem 5.0, Q-Chem, Inc., Pleasanton, CA (2017)

 Yihan Shao,  Zhengting Gan,  E. Epifanovsky,  A. T. B. Gilbert,  M. Wormit,  
 J. Kussmann,  A. W. Lange,  A. Behn,  Jia Deng,  Xintian Feng,  D. Ghosh,  
 M. Goldey,  P. R. Horn,  L. D. Jacobson,  I. Kaliman,  T. Kus,  A. Landau,  
 Jie Liu,  E. I. Proynov,  R. M. Richard,  R. P. Steele,  E. J. Sundstrom,  
 H. L. Woodcock III,  P. M. Zimmerman,  D. Zuev,  B. Albrecht,  E. Alguire,  
 S. A. Baeppler,  D. Barton,  Z. Benda,  Y. A. Bernard,  E. J. Berquist,  
 K. B. Bravaya,  H. Burton,  D. Casanova,  Chun-Min Chang,  Yunqing Chen,  
 A. Chien,  K. D. Closser,  M. P. Coons,  S. Dasgupta,  A. L. Dempwolff,  
 M. Diedenhofen,  Hainam Do,  R. G. Edgar,  Po-Tung Fang,  S. Fatehi,  
 Qingguo Feng,  J. Fosso-Tande,  Qinghui Ge,  A. Ghysels,  G. Gidofalvi,  
 J. Gomes,  J. Gonthier,  A. Gunina,  M. W. D. Hanson-Heine,  
 P. H. P. Harbach,  A. W. Hauser,  J. E. Herr,  E. G. Hohenstein,  
 Z. C. Holden,  Kerwin Hui,  T.-C. Jagau,  Hyunjun Ji,  B. Kaduk,  
 K. Khistyaev,  Jaehoon Kim,  P. Klunzinger,  K. Koh,  D. Kosenkov,  
 L. Koulias,  T. Kowalczyk,  C. M. Krauter,  A. Kunitsa,  Ka Un Lao,  
 A. Laurent,  K. V. Lawler,  Joonho Lee,  D. Lefrancois,  S. Lehtola,  
 D. S. Levine,  Yi-Pei Li,  You-Sheng Lin,  Fenglai Liu,  E. Livshits,  
 A. Luenser,  P. Manohar,  E. Mansoor,  S. F. Manzer,  Shan-Ping Mao,  
 Yuezhi Mao,  N. Mardirossian,  A. V. Marenich,  T. Markovich,  
 L. A. Martinez-Martinez,  S. A. Maurer,  N. J. Mayhall,  S. C. McKenzie,  
 J.-M. Mewes,  A. F. Morrison,  J. W. Mullinax,  K. Nanda,  
 T. S. Nguyen-Beck,  R. Olivares-Amaya,  J. A. Parkhill,  T. M. Perrine,  
 F. Plasser,  S. Prager,  A. Prociuk,  E. Ramos,  D. R. Rehn,  F. Rob,  
 M. Schneider,  N. Sergueev,  S. M. Sharada,  S. Sharma,  D. W. Small,  
 T. Stauch,  T. Stein,  Yu-Chuan Su,  A. J. W. Thom,  A. Tkatchenko,  
 T. Tsuchimochi,  L. Vogt,  O. Vydrov,  M. A. Watson,  J. Wenzel,  
 M. de Wergifosse,  T. A. Wesolowski,  A. White,  J. Witte,  A. Yamada,  
 Jun Yang,  K. Yao,  S. Yeganeh,  S. R. Yost,  Zhi-Qiang You,  A. Zech,  
 Igor Ying Zhang,  Xing Zhang,  Yan Zhao,  Ying Zhu,  B. R. Brooks,  
 G. K. L. Chan,  C. J. Cramer,  M. S. Gordon,  W. J. Hehre,  A. Klamt,  
 M. W. Schmidt,  C. D. Sherrill,  D. G. Truhlar,  A. Aspuru-Guzik,  R. Baer,  
 A. T. Bell,  N. A. Besley,  Jeng-Da Chai,  R. A. DiStasio Jr.,  A. Dreuw,  
 B. D. Dunietz,  T. R. Furlani,  Chao-Ping Hsu,  Yousung Jung,  Jing Kong,  
 D. S. Lambrecht,  WanZhen Liang,  C. Ochsenfeld,  V. A. Rassolov,  
 L. V. Slipchenko,  J. E. Subotnik,  T. Van Voorhis,  J. M. Herbert,  
 A. I. Krylov,  P. M. W. Gill,  M. Head-Gordon

 Contributors to earlier versions of Q-Chem not listed above: 
 R. D. Adamson,  B. Austin,  J. Baker,  G. J. O. Beran,  K. Brandhorst,  
 S. T. Brown,  E. F. C. Byrd,  A. K. Chakraborty,  C.-L. Cheng,  
 Siu Hung Chien,  D. M. Chipman,  D. L. Crittenden,  H. Dachsel,  
 R. J. Doerksen,  A. D. Dutoi,  L. Fusti-Molnar,  W. A. Goddard III,  
 A. Golubeva-Zadorozhnaya,  S. R. Gwaltney,  G. Hawkins,  A. Heyden,  
 S. Hirata,  G. Kedziora,  F. J. Keil,  C. Kelley,  Jihan Kim,  R. A. King,  
 R. Z. Khaliullin,  P. P. Korambath,  W. Kurlancheek,  A. M. Lee,  M. S. Lee,  
 S. V. Levchenko,  Ching Yeh Lin,  D. Liotard,  R. C. Lochan,  I. Lotan,  
 P. E. Maslen,  N. Nair,  D. P. O'Neill,  D. Neuhauser,  E. Neuscamman,  
 C. M. Oana,  R. Olson,  B. Peters,  R. Peverati,  P. A. Pieniazek,  
 Y. M. Rhee,  J. Ritchie,  M. A. Rohrdanz,  E. Rosta,  N. J. Russ,  
 H. F. Schaefer III,  N. E. Schultz,  N. Shenvi,  A. C. Simmonett,  A. Sodt,  
 D. Stuck,  K. S. Thanthiriwatte,  V. Vanovschi,  Tao Wang,  A. Warshel,  
 C. F. Williams,  Q. Wu,  X. Xu,  W. Zhang

 Please cite Q-Chem as follows:
 Y. Shao et al., Mol. Phys. 113, 184-215 (2015)
 DOI: 10.1080/00268976.2014.952696

 Q-Chem 5.0.2 for Intel X86 EM64T Linux

 Parts of Q-Chem use Armadillo 5.200.1 (Boston Tea Smuggler).
 http://arma.sourceforge.net/

 Q-Chem begins on Thu Jan 25 17:19:46 2018  


Host: 0

     Scratch files written to /home/jcartus/scratch/Benzene-HCN-complex.dir//
 Using version located at /usr/local/qchem/bin/qchem

 Parallel job on  1  processors

Total Memory Limit in MB = 2000
Mega-Array Size in MB = 192

Checking the input file for inconsistencies... 	...done.
Finally everything over in PARseQInput

--------------------------------------------------------------
User input:
--------------------------------------------------------------
$rem
SCF_PRINT                     1
BASIS                         6-311++g**
SCF_SAVE_MATRICES             1
SCF_CONVERGENCE               5
SCF_FINAL_PRINT               1
METHOD                        hf
JOBTYPE                       sp
$end

$molecule
0 1
C    -0.7097741    -0.990423    1.2077018
C    -1.406534    -0.9653529    0.0
C    -0.7097741    -0.990423    -1.2077018
C    0.6839651    -1.0405105    -1.2078652
C    1.3809779    -1.0655522    0.0
C    0.6839651    -1.0405105    1.2078652
H    -1.2499482    -0.968628    2.1440507
H    -2.4869197    -0.923706    0.0
H    -1.2499482    -0.968628    -2.1440507
H    1.2242882    -1.0580753    -2.1442563
H    2.4615886    -1.1029818    0.0
H    1.2242882    -1.0580753    2.1442563
N    -0.0034118    3.5353926    0.0
C    0.0751963    2.370704    0.0
H    0.1476295    1.3052847    0.0
$end


--------------------------------------------------------------
 I,J,IOp=           1           3           2  D=   6.4770072099165935E-012 Fix sym
 I, IOp=           2           2  D=   6.5081273703526676E-012 Fix sym
 I,J,IOp=           4           6           2  D=   6.4072566559009845E-012 Fix sym
 I, IOp=           5           2  D=   6.3691135698817902E-012 Fix sym
 I,J,IOp=           7           9           2  D=   1.1471279161229428E-011 Fix sym
 I, IOp=           8           2  D=   1.1500134178277222E-011 Fix sym
 I,J,IOp=          10          12           2  D=   1.1401585690237737E-011 Fix sym
 I, IOp=          11           2  D=   1.1362244478618777E-011 Fix sym
 I, IOp=          13           2  D=   9.7699626167013776E-015 Fix sym
 I, IOp=          14           2  D=   3.6282088444750116E-013 Fix sym
 I, IOp=          15           2  D=   6.8967054289714724E-013 Fix sym
 ----------------------------------------------------------------
             Standard Nuclear Orientation (Angstroms)
    I     Atom           X                Y                Z
 ----------------------------------------------------------------
    1      C       0.9470634806     0.7120369587    -1.2077018000
    2      C       0.9207922230     1.4087526032    -0.0000000000
    3      C       0.9470634806     0.7120369587     1.2077018000
    4      C       0.9995536742    -0.6816138206     1.2078652000
    5      C       1.0257969678    -1.3785824136     0.0000000000
    6      C       0.9995536742    -0.6816138206    -1.2078652000
    7      H       0.9243372678     1.2521726820    -2.1440507000
    8      H       0.8772828298     2.4890648996    -0.0000000000
    9      H       0.9243372678     1.2521726820     2.1440507000
   10      H       1.0180499502    -1.2219058365     2.1442563000
   11      H       1.0650894553    -2.4591269802     0.0000000000
   12      H       1.0180499502    -1.2219058365    -2.1442563000
   13      N      -3.5775276447    -0.0021266729     0.0000000000
   14      C      -2.4127052573    -0.0787267651     0.0000000000
   15      H      -1.3471626677    -0.1493231039     0.0000000000
 ----------------------------------------------------------------
 Molecular Point Group                 Cs    NOp =  2
 Largest Abelian Subgroup              Cs    NOp =  2
 Nuclear Repulsion Energy =   303.2813987857 hartrees
 There are       28 alpha and       28 beta electrons
 Requested basis set is 6-311++G(d,p)
 There are 83 shells and 225 basis functions

 Total QAlloc Memory Limit   2000 MB
 Mega-Array Size       188 MB
 MEM_STATIC part       192 MB

finished with qalloc call

                       Distance Matrix (Angstroms)
             C (  1)   C (  2)   C (  3)   C (  4)   C (  5)   C (  6)
   C (  2)  1.394506
   C (  3)  2.415404  1.394506
   C (  4)  2.789262  2.415528  1.394639
   C (  5)  2.415664  2.789312  2.415664  1.394773
   C (  6)  1.394639  2.415528  2.789262  2.415730  1.394773
   H (  7)  1.081209  2.149764  3.395071  3.870469  3.395309  2.149798
   H (  8)  2.149707  1.081188  2.149707  3.395157  3.870498  3.395157
   H (  9)  3.395071  2.149764  1.081209  2.149798  3.395309  3.870469
   H ( 10)  3.870503  3.395240  2.149955  1.081243  2.149987  3.395435
   H ( 11)  3.395402  3.870570  3.395402  2.150067  1.081259  2.150067
   H ( 12)  2.149955  3.395240  3.870503  3.395435  2.149987  1.081243
   N ( 13)  4.737140  4.714389  4.737140  4.782292  4.804709  4.782292
   C ( 14)  3.656760  3.650315  3.656760  3.669594  3.675993  3.669594
   H ( 15)  2.732025  2.751585  2.732025  2.692462  2.672455  2.692462
             H (  7)   H (  8)   H (  9)   H ( 10)   H ( 11)   H ( 12)
   H (  8)  2.475696
   H (  9)  4.288101  2.475696
   H ( 10)  4.951709  4.288234  2.475853
   H ( 11)  4.288416  4.951755  4.288416  2.476038
   H ( 12)  2.475853  4.288234  4.951709  4.288513  2.476038
   N ( 13)  5.141693  5.104054  5.141693  5.215844  5.252689  5.215844
   C ( 14)  4.183790  4.173437  4.183790  4.204138  4.214423  4.204138
   H ( 15)  3.423574  3.450978  3.423574  3.367863  3.339784  3.367863
             N ( 13)   C ( 14)
   C ( 14)  1.167338
   H ( 15)  2.235217  1.067879

 Job number = 2, Threshold = 1.00E-08
Integral type ranges set in mkLRange.C for JobNum: 2  <1-21|1-21>
Symmetry turned off temporarily
 Using the largest function pair in Schwarz integrals
Total number of integrals generated =          359829
Symmetry turned back on
 A cutoff of  1.0D-08 yielded   3021 shell pairs
 There are     22469 function pairs (     24033 Cartesian)
 Job number = 11, Threshold = 1.00E-08
Integral type ranges set in mkLRange.C for JobNum: 11  <1-21|22-22>
Total number of integrals generated =          223290
 Smallest overlap matrix eigenvalue = 1.07E-06

 Q-Chem warning in module /usr/local/qchem/stvman/mkSTV.C, line 295:

 Overlap eigenvalue is smaller than square root of threshold

 Multipole matrices computed through 2nd order

 Scale SEOQF with 1.000000e-01/1.000000e-01/1.000000e-01

 Standard Electronic Orientation quadrupole field applied
 Nucleus-field energy     =     0.0000000040 hartrees
 ENuRep (before)= 303.2813987857
 ENucField = 0.0000000040
 ENuRep (after) = 303.2813987897
 Guess from superposition of atomic densities
 Warning:  Energy on first SCF cycle will be non-variational
 SAD guess density has 56.000000 electrons

 ==================================================
    GEN_SCFMAN: A general SCF calculation manager  
                                                   
    Authors:                                       
        -- Eric Jon Sundstrom 2008-2014            
        -- Paul Horn 2010-2015                     
        -- Yuezhi Mao 2012-                        
        -- Dmitri Zuev 2014                        
        -- Alec White 2015-                        
        -- David Stuck 2015                        
        -- Shaama M.S. 2015                        
        -- Shane Yost 2015-                         
        -- Joonho Lee 2016-                        
        -- David Small 2016-                       
        -- Daniel Levine 2016-                     
        -- Susi Lehtola 2017-                      
        -- Hugh Burton 2017-                       
 ==================================================
 Hartree-Fock
Finding J and K together
 Job number = 22, Threshold = 1.00E-08
Integral type ranges set in mkLRange.C for JobNum: 22  <1-21|1-21>
 MakeJK  time:  CPU       4.66 s  wall       4.71 s
 HF Exchange:              -46.08790978600340
 One-Electron:             -1032.34619900158714
 Total Coulomb:            448.83964314121789
 Nuclear repulsion:        303.28139878972473
 A restricted SCF calculation will be
 performed using DIIS
 SCF converges when DIIS error is below 1.0e-05
 ---------------------------------------
  Cycle       Energy         DIIS error
 ---------------------------------------
Finding J and K together
 Job number = 22, Threshold = 1.00E-08
Integral type ranges set in mkLRange.C for JobNum: 22  <1-21|1-21>
 MakeJK  time:  CPU      20.21 s  wall      20.56 s
 HF Exchange:              -45.20370950554769
 One-Electron:             -1036.83452241838108
 Total Coulomb:            455.21194884358198
 Nuclear repulsion:        303.28139878972473
    1    -326.3130668566      4.46e-02  
Finding J and K together
 Job number = 22, Threshold = 1.00E-08
Integral type ranges set in mkLRange.C for JobNum: 22  <1-21|1-21>
 MakeJK  time:  CPU      16.02 s  wall      16.11 s
 HF Exchange:              -45.20374257805215
 One-Electron:             -1036.83533602751572
 Total Coulomb:            455.13567294410302
 Nuclear repulsion:        303.28139878972473
    2    -323.5448842906      3.57e-03  
Finding J and K together
 Job number = 22, Threshold = 1.00E-08
Integral type ranges set in mkLRange.C for JobNum: 22  <1-21|1-21>
 MakeJK  time:  CPU      17.87 s  wall      18.01 s
 HF Exchange:              -45.28768891294371
 One-Electron:             -1036.99176482939674
 Total Coulomb:            455.34464514546420
 Nuclear repulsion:        303.28139878972473
    3    -323.6220068717      2.48e-03  
Finding J and K together
 Job number = 22, Threshold = 1.00E-08
Integral type ranges set in mkLRange.C for JobNum: 22  <1-21|1-21>
 MakeJK  time:  CPU      17.38 s  wall      17.42 s
 HF Exchange:              -45.28720253370716
 One-Electron:             -1037.05780018096630
 Total Coulomb:            455.40664976306488
 Nuclear repulsion:        303.28139878972473
    4    -323.6534098072      6.86e-04  
Finding J and K together
 Job number = 22, Threshold = 1.00E-08
Integral type ranges set in mkLRange.C for JobNum: 22  <1-21|1-21>
 MakeJK  time:  CPU      18.39 s  wall      18.41 s
 HF Exchange:              -45.28505945806823
 One-Electron:             -1036.98904001309143
 Total Coulomb:            455.33567530918663
 Nuclear repulsion:        303.28139878972473
    5    -323.6569541619      8.85e-05  
Finding J and K together
 Job number = 22, Threshold = 1.00E-08
Integral type ranges set in mkLRange.C for JobNum: 22  <1-21|1-21>
 MakeJK  time:  CPU      18.48 s  wall      18.50 s
 HF Exchange:              -45.28613010074213
 One-Electron:             -1037.01321073733357
 Total Coulomb:            455.36090679767210
 Nuclear repulsion:        303.28139878972473
    6    -323.6570253722      3.06e-05  
Finding J and K together
 Job number = 22, Threshold = 1.00E-08
Integral type ranges set in mkLRange.C for JobNum: 22  <1-21|1-21>
 MakeJK  time:  CPU      19.26 s  wall      19.29 s
 HF Exchange:              -45.28573971759377
 One-Electron:             -1037.00715231633126
 Total Coulomb:            455.35445684475576
 Nuclear repulsion:        303.28139878972473
    7    -323.6570352507      1.15e-05  
    8    -323.6570363994      2.73e-06  Convergence criterion met
 ---------------------------------------
 SCF time:   CPU 134.39s  wall 135.00s 
 Total energy in the final basis set =     -323.6570363994
 HF Exchange:              -45.28573971759377
 One-Electron:             -1037.00715231633126
 Total Coulomb:            455.35445684475576
 Nuclear repulsion:        303.28139878972473
Wall  1 = 136
Clock 1 = 134.67193603515625
 ==================================================
                  Done GEN_SCFMAN                  
 ==================================================

Symmetry turned off temporarily

 --------------------------------------------------------------
             Orbital Energies (a.u.) and Symmetries
 --------------------------------------------------------------

 Alpha MOs, Restricted
 -- Occupied --                  
-15.587 -11.279 -11.260 -11.259 -11.259 -11.258 -11.258 -11.257
  1 A'    2 A'    3 A'    1 A"    4 A'    5 A'    2 A"    6 A'                 
 -1.216  -1.176  -1.039  -1.039  -0.847  -0.847  -0.794  -0.732
  7 A'    8 A'    9 A'    3 A"    4 A"   10 A'   11 A'   12 A'                 
 -0.665  -0.642  -0.611  -0.611  -0.568  -0.523  -0.517  -0.517
 13 A'    5 A"   14 A'    6 A"   15 A'   16 A'    7 A"   17 A'                 
 -0.476  -0.476  -0.361  -0.361
  8 A"   18 A'   19 A'    9 A"                                                 
 -- Virtual --                   
  0.035   0.043   0.043   0.061   0.061   0.077   0.084   0.090
 20 A'   10 A"   21 A'   11 A"   22 A'   23 A'   24 A'   25 A'                 
  0.090   0.115   0.125   0.125   0.145   0.153   0.160   0.160
 12 A"   26 A'   27 A'   13 A"   28 A'   14 A"   29 A'   15 A"                 
  0.172   0.172   0.175   0.177   0.177   0.183   0.183   0.200
 30 A'   16 A"   31 A'   32 A'   17 A"   33 A'   18 A"   34 A'                 
  0.203   0.203   0.204   0.204   0.210   0.224   0.238   0.242
 19 A"   35 A'   36 A'   20 A"   37 A'   38 A'   39 A'   21 A"                 
  0.242   0.273   0.273   0.295   0.296   0.296   0.302   0.317
 40 A'   22 A"   41 A'   42 A'   23 A"   24 A"   43 A'   44 A'                 
  0.324   0.332   0.332   0.349   0.356   0.399   0.399   0.416
 45 A'   25 A"   46 A'   47 A'   48 A'   49 A'   26 A"   50 A'                 
  0.416   0.429   0.441   0.481   0.481   0.493   0.493   0.569
 27 A"   51 A'   52 A'   28 A"   53 A'   29 A"   54 A'   55 A'                 
  0.587   0.629   0.701   0.702   0.709   0.731   0.731   0.734
 30 A"   56 A'   57 A'   31 A"   58 A'   59 A'   32 A"   33 A"                 
  0.737   0.743   0.766   0.783   0.784   0.798   0.798   0.863
 60 A'   34 A"   61 A'   62 A'   35 A"   36 A"   63 A'   64 A'                 
  0.866   0.916   0.925   0.926   0.932   0.932   0.943   0.999
 65 A'   66 A'   37 A"   67 A'   38 A"   68 A'   69 A'   70 A'                 
  1.000   1.002   1.024   1.040   1.041   1.086   1.104   1.105
 39 A"   71 A'   72 A'   40 A"   73 A'   74 A'   41 A"   75 A'                 
  1.111   1.125   1.127   1.133   1.193   1.193   1.226   1.303
 42 A"   43 A"   76 A'   77 A'   44 A"   78 A'   45 A"   79 A'                 
  1.308   1.313   1.370   1.370   1.380   1.452   1.452   1.501
 46 A"   80 A'   47 A"   81 A'   82 A'   83 A'   48 A"   84 A'                 
  1.531   1.531   1.547   1.691   1.757   1.772   1.773   1.782
 49 A"   85 A'   86 A'   50 A"   87 A'   51 A"   88 A'   89 A'                 
  1.807   1.824   1.824   1.889   1.889   1.906   1.907   2.010
 90 A'   52 A"   91 A'   53 A"   92 A'   54 A"   93 A'   94 A'                 
  2.039   2.040   2.084   2.084   2.108   2.108   2.113   2.217
 55 A"   95 A'   56 A"   96 A'   57 A"   97 A'   58 A"   59 A"                 
  2.217   2.221   2.262   2.267   2.278   2.309   2.326   2.326
 98 A'   60 A"   99 A'   61 A"  100 A'  101 A'   62 A"  102 A'                 
  2.358   2.358   2.398   2.398   2.619   2.640   2.723   2.723
 63 A"  103 A'   64 A"  104 A'  105 A'   65 A"   66 A"  106 A'                 
  2.810   2.810   2.821   2.919   2.941   2.941   2.974   3.008
107 A'   67 A"  108 A'  109 A'   68 A"  110 A'  111 A'   69 A"                 
  3.008   3.028   3.028   3.037   3.048   3.048   3.070   3.128
112 A'   70 A"  113 A'  114 A'   71 A"  115 A'  116 A'  117 A'                 
  3.209   3.209   3.247   3.254   3.254   3.271   3.271   3.299
 72 A"  118 A'   73 A"   74 A"  119 A'   75 A"  120 A'  121 A'                 
  3.309   3.309   3.458   3.526   3.642   3.753   3.753   3.780
 76 A"  122 A'  123 A'   77 A"  124 A'  125 A'   78 A"  126 A'                 
  3.908   3.910   3.972   4.059   4.390   4.390   4.426   4.426
 79 A"  127 A'  128 A'  129 A'   80 A"  130 A'   81 A"  131 A'                 
  4.479   4.559   4.559   5.076   5.255  24.766  25.122  25.123
132 A'   82 A"  133 A'  134 A'   83 A"  135 A'   84 A"  136 A'                 
 25.237  25.237  25.348  25.501  37.227
 85 A"  137 A'  138 A'  139 A'  140 A'                                         

 Beta MOs, Restricted
 -- Occupied --                  
-15.587 -11.279 -11.260 -11.259 -11.259 -11.258 -11.258 -11.257
  1 A'    2 A'    3 A'    1 A"    4 A'    5 A'    2 A"    6 A'                 
 -1.216  -1.176  -1.039  -1.039  -0.847  -0.847  -0.794  -0.732
  7 A'    8 A'    9 A'    3 A"    4 A"   10 A'   11 A'   12 A'                 
 -0.665  -0.642  -0.611  -0.611  -0.568  -0.523  -0.517  -0.517
 13 A'    5 A"   14 A'    6 A"   15 A'   16 A'    7 A"   17 A'                 
 -0.476  -0.476  -0.361  -0.361
  8 A"   18 A'   19 A'    9 A"                                                 
 -- Virtual --                   
  0.035   0.043   0.043   0.061   0.061   0.077   0.084   0.090
 20 A'   10 A"   21 A'   11 A"   22 A'   23 A'   24 A'   25 A'                 
  0.090   0.115   0.125   0.125   0.145   0.153   0.160   0.160
 12 A"   26 A'   27 A'   13 A"   28 A'   14 A"   29 A'   15 A"                 
  0.172   0.172   0.175   0.177   0.177   0.183   0.183   0.200
 30 A'   16 A"   31 A'   32 A'   17 A"   33 A'   18 A"   34 A'                 
  0.203   0.203   0.204   0.204   0.210   0.224   0.238   0.242
 19 A"   35 A'   36 A'   20 A"   37 A'   38 A'   39 A'   21 A"                 
  0.242   0.273   0.273   0.295   0.296   0.296   0.302   0.317
 40 A'   22 A"   41 A'   42 A'   23 A"   24 A"   43 A'   44 A'                 
  0.324   0.332   0.332   0.349   0.356   0.399   0.399   0.416
 45 A'   25 A"   46 A'   47 A'   48 A'   49 A'   26 A"   50 A'                 
  0.416   0.429   0.441   0.481   0.481   0.493   0.493   0.569
 27 A"   51 A'   52 A'   28 A"   53 A'   29 A"   54 A'   55 A'                 
  0.587   0.629   0.701   0.702   0.709   0.731   0.731   0.734
 30 A"   56 A'   57 A'   31 A"   58 A'   59 A'   32 A"   33 A"                 
  0.737   0.743   0.766   0.783   0.784   0.798   0.798   0.863
 60 A'   34 A"   61 A'   62 A'   35 A"   36 A"   63 A'   64 A'                 
  0.866   0.916   0.925   0.926   0.932   0.932   0.943   0.999
 65 A'   66 A'   37 A"   67 A'   38 A"   68 A'   69 A'   70 A'                 
  1.000   1.002   1.024   1.040   1.041   1.086   1.104   1.105
 39 A"   71 A'   72 A'   40 A"   73 A'   74 A'   41 A"   75 A'                 
  1.111   1.125   1.127   1.133   1.193   1.193   1.226   1.303
 42 A"   43 A"   76 A'   77 A'   44 A"   78 A'   45 A"   79 A'                 
  1.308   1.313   1.370   1.370   1.380   1.452   1.452   1.501
 46 A"   80 A'   47 A"   81 A'   82 A'   83 A'   48 A"   84 A'                 
  1.531   1.531   1.547   1.691   1.757   1.772   1.773   1.782
 49 A"   85 A'   86 A'   50 A"   87 A'   51 A"   88 A'   89 A'                 
  1.807   1.824   1.824   1.889   1.889   1.906   1.907   2.010
 90 A'   52 A"   91 A'   53 A"   92 A'   54 A"   93 A'   94 A'                 
  2.039   2.040   2.084   2.084   2.108   2.108   2.113   2.217
 55 A"   95 A'   56 A"   96 A'   57 A"   97 A'   58 A"   59 A"                 
  2.217   2.221   2.262   2.267   2.278   2.309   2.326   2.326
 98 A'   60 A"   99 A'   61 A"  100 A'  101 A'   62 A"  102 A'                 
  2.358   2.358   2.398   2.398   2.619   2.640   2.723   2.723
 63 A"  103 A'   64 A"  104 A'  105 A'   65 A"   66 A"  106 A'                 
  2.810   2.810   2.821   2.919   2.941   2.941   2.974   3.008
107 A'   67 A"  108 A'  109 A'   68 A"  110 A'  111 A'   69 A"                 
  3.008   3.028   3.028   3.037   3.048   3.048   3.070   3.128
112 A'   70 A"  113 A'  114 A'   71 A"  115 A'  116 A'  117 A'                 
  3.209   3.209   3.247   3.254   3.254   3.271   3.271   3.299
 72 A"  118 A'   73 A"   74 A"  119 A'   75 A"  120 A'  121 A'                 
  3.309   3.309   3.458   3.526   3.642   3.753   3.753   3.780
 76 A"  122 A'  123 A'   77 A"  124 A'  125 A'   78 A"  126 A'                 
  3.908   3.910   3.972   4.059   4.390   4.390   4.426   4.426
 79 A"  127 A'  128 A'  129 A'   80 A"  130 A'   81 A"  131 A'                 
  4.479   4.559   4.559   5.076   5.255  24.766  25.122  25.123
132 A'   82 A"  133 A'  134 A'   83 A"  135 A'   84 A"  136 A'                 
 25.237  25.237  25.348  25.501  37.227
 85 A"  137 A'  138 A'  139 A'  140 A'                                         
 --------------------------------------------------------------

          Ground-State Mulliken Net Atomic Charges

     Atom                 Charge (a.u.)
  ----------------------------------------
      1 C                    -0.206405
      2 C                    -0.206578
      3 C                    -0.206405
      4 C                    -0.213808
      5 C                    -0.222980
      6 C                    -0.213808
      7 H                     0.216255
      8 H                     0.216295
      9 H                     0.216255
     10 H                     0.215889
     11 H                     0.215506
     12 H                     0.215889
     13 N                    -0.231621
     14 C                    -0.037864
     15 H                     0.243380
  ----------------------------------------
  Sum of atomic charges =    -0.000000

 -----------------------------------------------------------------
                    Cartesian Multipole Moments
 -----------------------------------------------------------------
    Charge (ESU x 10^10)
                -0.0000
    Dipole Moment (Debye)
         X       4.1719      Y      -0.1434      Z      -0.0000
       Tot       4.1743
    Quadrupole Moments (Debye-Ang)
        XX     -71.0497     XY      -0.0297     YY     -43.1825
        XZ      -0.0000     YZ       0.0000     ZZ     -43.1954
    Octopole Moments (Debye-Ang^2)
       XXX      67.2256    XXY      -1.4139    XYY       6.0587
       YYY       0.4246    XXZ      -0.0000    XYZ       0.0000
       YYZ      -0.0000    XZZ       6.1217    YZZ       0.1427
       ZZZ      -0.0000
    Hexadecapole Moments (Debye-Ang^3)
      XXXX   -1267.2916   XXXY       0.5870   XXYY    -209.4435
      XYYY      -2.3572   YYYY    -276.8905   XXXZ       0.0000
      XXYZ      -0.0000   XYYZ      -0.0000   YYYZ       0.0000
      XXZZ    -209.5200   XYZZ      -0.7866   YYZZ     -92.2748
      XZZZ      -0.0000   YZZZ      -0.0000   ZZZZ    -276.7540
 -----------------------------------------------------------------
 Mayer SCF Bond Order, atomic valence on the diagonal:

            1           2           3           4           5           6
    1   4.4349349   1.8102402  -0.0880470   0.0741232  -0.0821829   1.8057678
    2   1.8102402   4.4373795   1.8102402  -0.0849670   0.0737592  -0.0849670
    3  -0.0880470   1.8102402   4.4349349   1.8057678  -0.0821829   0.0741232
    4   0.0741232  -0.0849670   1.8057678   4.4374617   1.7989027  -0.0829265
    5  -0.0821829   0.0737592  -0.0821829   1.7989027   4.4444467   1.7989027
    6   1.8057678  -0.0849670   0.0741232  -0.0829265   1.7989027   4.4374617
    7   0.7786905   0.0867287  -0.0243569   0.0103592  -0.0246461   0.0869161
    8   0.0877181   0.7770709   0.0877181  -0.0246309   0.0102498  -0.0246309
    9  -0.0243569   0.0867287   0.7786905   0.0869161  -0.0246461   0.0103592
   10   0.0104726  -0.0241747   0.0859367   0.7810024   0.0856215  -0.0241999
   11  -0.0239546   0.0104492  -0.0239546   0.0854686   0.7819923   0.0854686
   12   0.0859367  -0.0241747   0.0104726  -0.0241999   0.0856215   0.7810024
   13  -0.0025762  -0.0011276  -0.0025762  -0.0004671   0.0028516  -0.0004671
   14  -0.0233227  -0.0229411  -0.0233227  -0.0194393  -0.0152150  -0.0194393
   15   0.0264262   0.0245145   0.0264262   0.0315523   0.0354182   0.0315523
            7           8           9          10          11          12
    1   0.7786905   0.0877181  -0.0243569   0.0104726  -0.0239546   0.0859367
    2   0.0867287   0.7770709   0.0867287  -0.0241747   0.0104492  -0.0241747
    3  -0.0243569   0.0877181   0.7786905   0.0859367  -0.0239546   0.0104726
    4   0.0103592  -0.0246309   0.0869161   0.7810024   0.0854686  -0.0241999
    5  -0.0246461   0.0102498  -0.0246461   0.0856215   0.7819923   0.0856215
    6   0.0869161  -0.0246309   0.0103592  -0.0241999   0.0854686   0.7810024
    7   0.9278886   0.0092711   0.0006536  -0.0000096   0.0006547   0.0092305
    8   0.0092711   0.9281072   0.0092711   0.0006523  -0.0000088   0.0006523
    9   0.0006536   0.0092711   0.9278886   0.0092305   0.0006547  -0.0000096
   10  -0.0000096   0.0006523   0.0092305   0.9282900   0.0091678   0.0006571
   11   0.0006547  -0.0000088   0.0006547   0.0091678   0.9289956   0.0091678
   12   0.0092305   0.0006523  -0.0000096   0.0006571   0.0091678   0.9282900
   13  -0.0007654  -0.0005428  -0.0007654  -0.0009708  -0.0009571  -0.0009708
   14  -0.0022268  -0.0021459  -0.0022268  -0.0022279  -0.0021272  -0.0022279
   15  -0.0026112  -0.0025371  -0.0026112  -0.0028681  -0.0030259  -0.0028681
           13          14          15
    1  -0.0025762  -0.0233227   0.0264262
    2  -0.0011276  -0.0229411   0.0245145
    3  -0.0025762  -0.0233227   0.0264262
    4  -0.0004671  -0.0194393   0.0315523
    5   0.0028516  -0.0152150   0.0354182
    6  -0.0004671  -0.0194393   0.0315523
    7  -0.0007654  -0.0022268  -0.0026112
    8  -0.0005428  -0.0021459  -0.0025371
    9  -0.0007654  -0.0022268  -0.0026112
   10  -0.0009708  -0.0022279  -0.0028681
   11  -0.0009571  -0.0021272  -0.0030259
   12  -0.0009708  -0.0022279  -0.0028681
   13   2.9284522   3.0196229  -0.0818357
   14   3.0196229   3.7421518   0.8593915
   15  -0.0818357   0.8593915   0.9369240


 JobOver = TRUE
Archival summary:
1\1\qciep03\SP\HF\BasisUnspecified\177\jcartus\ThuJan2517:22:022018ThuJan2517:22:022018\0\\#,HF,BasisUnspecified,\\0,1\C\H,1,1.08119\C,1,1.39451,2,119.998\H,3,1.08121,1,120.002,2,-0.0253481,0\C,1,1.39451,2,119.998,3,179.83,0\H,5,1.08121,1,120.002,2,0.0253481,0\C,5,1.39464,1,120.005,2,-179.828,0\H,7,1.08124,5,120.006,1,179.885,0\C,3,1.39464,1,120.005,2,179.828,0\H,9,1.08124,3,120.006,1,-179.885,0\C,7,1.39477,5,119.997,1,-0.00109518,0\H,11,1.08126,7,120.004,5,179.914,0\H,11,2.67246,7,75.7262,5,63.858,0\C,13,1.06788,11,156.405,7,116.673,0\N,14,1.16734,13,179.972,11,nan,0\\HF=-323.657036\\@

 Total job time:  136.87s(wall), 136.06s(cpu) 
 Thu Jan 25 17:22:02 2018

        *************************************************************
        *                                                           *
        *  Thank you very much for using Q-Chem.  Have a nice day.  *
        *                                                           *
        *************************************************************


*** MISSION COMPLETED -- STARFLEET OUT ***

0 sent ACK to 0 
now end server 0 ... 
