Process 0 of 1 is on qciep03 - thread support 0
initial socket setup ...start
initial socket setup ...done 
now start server 0 ... 
qciep03.tugraz.at 127.0.1
Q-Chem Developer Version! Running on 127.0.1.*
                  Welcome to Q-Chem
     A Quantum Leap Into The Future Of Chemistry


 Q-Chem 5.0, Q-Chem, Inc., Pleasanton, CA (2017)

 Yihan Shao,  Zhengting Gan,  E. Epifanovsky,  A. T. B. Gilbert,  M. Wormit,  
 J. Kussmann,  A. W. Lange,  A. Behn,  Jia Deng,  Xintian Feng,  D. Ghosh,  
 M. Goldey,  P. R. Horn,  L. D. Jacobson,  I. Kaliman,  T. Kus,  A. Landau,  
 Jie Liu,  E. I. Proynov,  R. M. Richard,  R. P. Steele,  E. J. Sundstrom,  
 H. L. Woodcock III,  P. M. Zimmerman,  D. Zuev,  B. Albrecht,  E. Alguire,  
 S. A. Baeppler,  D. Barton,  Z. Benda,  Y. A. Bernard,  E. J. Berquist,  
 K. B. Bravaya,  H. Burton,  D. Casanova,  Chun-Min Chang,  Yunqing Chen,  
 A. Chien,  K. D. Closser,  M. P. Coons,  S. Dasgupta,  A. L. Dempwolff,  
 M. Diedenhofen,  Hainam Do,  R. G. Edgar,  Po-Tung Fang,  S. Fatehi,  
 Qingguo Feng,  J. Fosso-Tande,  Qinghui Ge,  A. Ghysels,  G. Gidofalvi,  
 J. Gomes,  J. Gonthier,  A. Gunina,  M. W. D. Hanson-Heine,  
 P. H. P. Harbach,  A. W. Hauser,  J. E. Herr,  E. G. Hohenstein,  
 Z. C. Holden,  Kerwin Hui,  T.-C. Jagau,  Hyunjun Ji,  B. Kaduk,  
 K. Khistyaev,  Jaehoon Kim,  P. Klunzinger,  K. Koh,  D. Kosenkov,  
 L. Koulias,  T. Kowalczyk,  C. M. Krauter,  A. Kunitsa,  Ka Un Lao,  
 A. Laurent,  K. V. Lawler,  Joonho Lee,  D. Lefrancois,  S. Lehtola,  
 D. S. Levine,  Yi-Pei Li,  You-Sheng Lin,  Fenglai Liu,  E. Livshits,  
 A. Luenser,  P. Manohar,  E. Mansoor,  S. F. Manzer,  Shan-Ping Mao,  
 Yuezhi Mao,  N. Mardirossian,  A. V. Marenich,  T. Markovich,  
 L. A. Martinez-Martinez,  S. A. Maurer,  N. J. Mayhall,  S. C. McKenzie,  
 J.-M. Mewes,  A. F. Morrison,  J. W. Mullinax,  K. Nanda,  
 T. S. Nguyen-Beck,  R. Olivares-Amaya,  J. A. Parkhill,  T. M. Perrine,  
 F. Plasser,  S. Prager,  A. Prociuk,  E. Ramos,  D. R. Rehn,  F. Rob,  
 M. Schneider,  N. Sergueev,  S. M. Sharada,  S. Sharma,  D. W. Small,  
 T. Stauch,  T. Stein,  Yu-Chuan Su,  A. J. W. Thom,  A. Tkatchenko,  
 T. Tsuchimochi,  L. Vogt,  O. Vydrov,  M. A. Watson,  J. Wenzel,  
 M. de Wergifosse,  T. A. Wesolowski,  A. White,  J. Witte,  A. Yamada,  
 Jun Yang,  K. Yao,  S. Yeganeh,  S. R. Yost,  Zhi-Qiang You,  A. Zech,  
 Igor Ying Zhang,  Xing Zhang,  Yan Zhao,  Ying Zhu,  B. R. Brooks,  
 G. K. L. Chan,  C. J. Cramer,  M. S. Gordon,  W. J. Hehre,  A. Klamt,  
 M. W. Schmidt,  C. D. Sherrill,  D. G. Truhlar,  A. Aspuru-Guzik,  R. Baer,  
 A. T. Bell,  N. A. Besley,  Jeng-Da Chai,  R. A. DiStasio Jr.,  A. Dreuw,  
 B. D. Dunietz,  T. R. Furlani,  Chao-Ping Hsu,  Yousung Jung,  Jing Kong,  
 D. S. Lambrecht,  WanZhen Liang,  C. Ochsenfeld,  V. A. Rassolov,  
 L. V. Slipchenko,  J. E. Subotnik,  T. Van Voorhis,  J. M. Herbert,  
 A. I. Krylov,  P. M. W. Gill,  M. Head-Gordon

 Contributors to earlier versions of Q-Chem not listed above: 
 R. D. Adamson,  B. Austin,  J. Baker,  G. J. O. Beran,  K. Brandhorst,  
 S. T. Brown,  E. F. C. Byrd,  A. K. Chakraborty,  C.-L. Cheng,  
 Siu Hung Chien,  D. M. Chipman,  D. L. Crittenden,  H. Dachsel,  
 R. J. Doerksen,  A. D. Dutoi,  L. Fusti-Molnar,  W. A. Goddard III,  
 A. Golubeva-Zadorozhnaya,  S. R. Gwaltney,  G. Hawkins,  A. Heyden,  
 S. Hirata,  G. Kedziora,  F. J. Keil,  C. Kelley,  Jihan Kim,  R. A. King,  
 R. Z. Khaliullin,  P. P. Korambath,  W. Kurlancheek,  A. M. Lee,  M. S. Lee,  
 S. V. Levchenko,  Ching Yeh Lin,  D. Liotard,  R. C. Lochan,  I. Lotan,  
 P. E. Maslen,  N. Nair,  D. P. O'Neill,  D. Neuhauser,  E. Neuscamman,  
 C. M. Oana,  R. Olson,  B. Peters,  R. Peverati,  P. A. Pieniazek,  
 Y. M. Rhee,  J. Ritchie,  M. A. Rohrdanz,  E. Rosta,  N. J. Russ,  
 H. F. Schaefer III,  N. E. Schultz,  N. Shenvi,  A. C. Simmonett,  A. Sodt,  
 D. Stuck,  K. S. Thanthiriwatte,  V. Vanovschi,  Tao Wang,  A. Warshel,  
 C. F. Williams,  Q. Wu,  X. Xu,  W. Zhang

 Please cite Q-Chem as follows:
 Y. Shao et al., Mol. Phys. 113, 184-215 (2015)
 DOI: 10.1080/00268976.2014.952696

 Q-Chem 5.0.2 for Intel X86 EM64T Linux

 Parts of Q-Chem use Armadillo 5.200.1 (Boston Tea Smuggler).
 http://arma.sourceforge.net/

 Q-Chem begins on Thu Jan 25 17:25:32 2018  


Host: 0

     Scratch files written to /home/jcartus/scratch/Benzene-Methane-complex.dir//
 Using version located at /usr/local/qchem/bin/qchem

 Parallel job on  1  processors

Total Memory Limit in MB = 2000
Mega-Array Size in MB = 192

Checking the input file for inconsistencies... 	...done.
Finally everything over in PARseQInput

--------------------------------------------------------------
User input:
--------------------------------------------------------------
$rem
SCF_PRINT                     1
BASIS                         6-311++g**
SCF_SAVE_MATRICES             1
SCF_CONVERGENCE               5
SCF_FINAL_PRINT               1
METHOD                        hf
JOBTYPE                       sp
$end

$molecule
0 1
C    1.3932178    0.0362913    -0.6332803
C    0.7280364    -1.1884015    -0.6333017
C    -0.6651797    -1.2247077    -0.6332803
C    -1.3932041    -0.0362972    -0.6333017
C    -0.7280381    1.1884163    -0.6332803
C    0.6651677    1.2246987    -0.6333017
H    2.4742737    0.0644484    -0.631724
H    1.2929588    -2.1105409    -0.6317401
H    -1.1813229    -2.1750081    -0.631724
H    -2.4742614    -0.0644647    -0.6317401
H    -1.2929508    2.1105596    -0.631724
H    1.1813026    2.1750056    -0.6317401
C    0.0    0.0    3.0826195
H    0.5868776    0.8381742    3.4463772
H    -1.0193189    0.0891638    3.4463772
H    0.0    0.0    1.9966697
H    0.4324413    -0.927338    3.4463772
$end


--------------------------------------------------------------
 I,J,IOp=           1           5           2  D=   5.7525190896478974E-008 Fix sym
 Atom   5: (  0.5559268642, -1.2780133589,  0.7148697129)
         ->(  0.5559268847, -1.2780133790,  0.7148697228)
 I,J,IOp=           1           3           3  D=   3.2904852208554455E-008 Fix sym
 Atom   3: ( -1.3847555082,  0.1575598881,  0.7148697336)
         ->( -1.3847554950,  0.1575598847,  0.7148697228)
 I,J,IOp=           2           6           2  D=   9.7334823672558187E-008 Fix sym
 Atom   6: (  1.3847412851, -0.1575645785,  0.7148911126)
         ->(  1.3847413000, -0.1575646232,  0.7148911333)
 I,J,IOp=           2           4           3  D=   1.9118214602428398E-007 Fix sym
 Atom   4: ( -0.8288255533, -1.1204389103,  0.7148911234)
         ->( -0.8288256164, -1.1204388318,  0.7148911333)
 I,J,IOp=           7          11           2  D=   1.0737426196773181E-007 Fix sym
 Atom  11: (  0.9872963345, -2.2696761062,  0.7133134049)
         ->(  0.9872963654, -2.2696761505,  0.7133134225)
 I,J,IOp=           7           9           3  D=   5.3672373326349283E-008 Fix sym
 Atom   9: ( -2.4592453903,  0.2798143211,  0.7133134418)
         ->( -2.4592453874,  0.2798143418,  0.7133134225)
 I,J,IOp=           8          12           2  D=   8.1136745842857851E-008 Fix sym
 Atom  12: (  2.4592317311, -0.2798295386,  0.7133295044)
         ->(  2.4592317313, -0.2798295165,  0.7133295412)
 I,J,IOp=           8          10           3  D=   9.9575681005466538E-008 Fix sym
 Atom  10: ( -1.4719552874, -1.9898424064,  0.7133295236)
         ->( -1.4719553357, -1.9898423948,  0.7133295412)
 I, IOp=          13           2  D=   4.0355012096290120E-008 Fix sym
 Atom  13: ( -0.0000000101,  0.0000000071, -3.0010300769)
         ->(  0.0000000005,  0.0000000061, -3.0010300769)
 I, IOp=          13           3  D=   2.0177506048145077E-008 Fix sym
 Atom  13: (  0.0000000005,  0.0000000061, -3.0010300769)
         ->( -0.0000000025,  0.0000000018, -3.0010300769)
 I,J,IOp=          14          15           2  D=   9.4811377928412993E-008 Fix sym
 Atom  15: ( -0.5116056362, -0.8861268946, -3.3647877777)
         ->( -0.5116056296, -0.8861269439, -3.3647877841)
 I,J,IOp=          14          17           3  D=   7.8627192558021469E-008 Fix sym
 Atom  17: ( -0.5116056610,  0.8861269212, -3.3647877690)
         ->( -0.5116056296,  0.8861269439, -3.3647877841)
 I, IOp=          16           2  D=   9.8083225913508518E-009 Fix sym
 I, IOp=          16           3  D=   9.8083225913508551E-009 Fix sym
 ----------------------------------------------------------------
             Standard Nuclear Orientation (Angstroms)
    I     Atom           X                Y                Z
 ----------------------------------------------------------------
    1      C       0.8288286102     1.1204534943     0.7148697228
    2      C      -0.5559156836     1.2780034550     0.7148911333
    3      C      -1.3847554950     0.1575598847     0.7148697228
    4      C      -0.8288256164    -1.1204388318     0.7148911333
    5      C       0.5559268847    -1.2780133790     0.7148697228
    6      C       1.3847413000    -0.1575646232     0.7148911333
    7      H       1.4719490220     1.9898618087     0.7133134225
    8      H      -0.9872763956     2.2696719113     0.7133295412
    9      H      -2.4592453874     0.2798143418     0.7133134225
   10      H      -1.4719553357    -1.9898423948     0.7133295412
   11      H       0.9872963654    -2.2696761505     0.7133134225
   12      H       2.4592317313    -0.2798295165     0.7133295412
   13      C      -0.0000000025     0.0000000018    -3.0010300769
   14      H       1.0232112592    -0.0000000000    -3.3647877841
   15      H      -0.5116056296    -0.8861269439    -3.3647877841
   16      H      -0.0000000025     0.0000000017    -1.9150802769
   17      H      -0.5116056296     0.8861269439    -3.3647877841
 ----------------------------------------------------------------
 Molecular Point Group                 C3    NOp =  3
 Largest Abelian Subgroup              C1    NOp =  1
 Nuclear Repulsion Energy =   272.4618214158 hartrees
 There are       26 alpha and       26 beta electrons
 Requested basis set is 6-311++G(d,p)
 There are 92 shells and 224 basis functions

 Total QAlloc Memory Limit   2000 MB
 Mega-Array Size       188 MB
 MEM_STATIC part       192 MB

finished with qalloc call
 Job number = 2, Threshold = 1.00E-08
Integral type ranges set in mkLRange.C for JobNum: 2  <1-21|1-21>
Symmetry turned off temporarily
 Using the largest function pair in Schwarz integrals
Total number of integrals generated =          320571
Symmetry turned back on
 A cutoff of  1.0D-08 yielded   3654 shell pairs
 There are     22147 function pairs (     23595 Cartesian)
 Job number = 11, Threshold = 1.00E-08
Integral type ranges set in mkLRange.C for JobNum: 11  <1-21|22-22>
Total number of integrals generated =          139451
 Smallest overlap matrix eigenvalue = 1.02E-06

 Q-Chem warning in module /usr/local/qchem/stvman/mkSTV.C, line 295:

 Overlap eigenvalue is smaller than square root of threshold

 Multipole matrices computed through 2nd order

 Scale SEOQF with 1.000000e-01/1.000000e-01/1.000000e-01

 Standard Electronic Orientation quadrupole field applied
 Nucleus-field energy     =    -0.0000000062 hartrees
 ENuRep (before)= 272.4618214158
 ENucField = -0.0000000062
 ENuRep (after) = 272.4618214096
 Guess from superposition of atomic densities
 Warning:  Energy on first SCF cycle will be non-variational
 SAD guess density has 52.000000 electrons

 ==================================================
    GEN_SCFMAN: A general SCF calculation manager  
                                                   
    Authors:                                       
        -- Eric Jon Sundstrom 2008-2014            
        -- Paul Horn 2010-2015                     
        -- Yuezhi Mao 2012-                        
        -- Dmitri Zuev 2014                        
        -- Alec White 2015-                        
        -- David Stuck 2015                        
        -- Shaama M.S. 2015                        
        -- Shane Yost 2015-                         
        -- Joonho Lee 2016-                        
        -- David Small 2016-                       
        -- Daniel Levine 2016-                     
        -- Susi Lehtola 2017-                      
        -- Hugh Burton 2017-                       
 ==================================================
 Hartree-Fock
Finding J and K together
 Job number = 22, Threshold = 1.00E-08
Integral type ranges set in mkLRange.C for JobNum: 22  <1-21|1-21>
 MakeJK  time:  CPU       3.06 s  wall       3.06 s
 HF Exchange:              -40.65468420724033
 One-Electron:             -898.29442849139764
 Total Coulomb:            392.96070155736493
 Nuclear repulsion:        272.46182140955085
 A restricted SCF calculation will be
 performed using DIIS
 SCF converges when DIIS error is below 1.0e-05
 ---------------------------------------
  Cycle       Energy         DIIS error
 ---------------------------------------
Finding J and K together
 Job number = 22, Threshold = 1.00E-08
Integral type ranges set in mkLRange.C for JobNum: 22  <1-21|1-21>
 MakeJK  time:  CPU      13.10 s  wall      13.12 s
 HF Exchange:              -39.74901610722899
 One-Electron:             -904.81869305128669
 Total Coulomb:            401.21837762194184
 Nuclear repulsion:        272.46182140955085
    1    -273.5265897317      4.36e-02  
Finding J and K together
 Job number = 22, Threshold = 1.00E-08
Integral type ranges set in mkLRange.C for JobNum: 22  <1-21|1-21>
 MakeJK  time:  CPU      13.12 s  wall      13.19 s
 HF Exchange:              -39.78800774521645
 One-Electron:             -903.68744852455620
 Total Coulomb:            400.05575059759514
 Nuclear repulsion:        272.46182140955085
    2    -270.8875101270      2.87e-03  
Finding J and K together
 Job number = 22, Threshold = 1.00E-08
Integral type ranges set in mkLRange.C for JobNum: 22  <1-21|1-21>
 MakeJK  time:  CPU       9.28 s  wall       9.31 s
 HF Exchange:              -39.86958767236695
 One-Electron:             -904.49195935151897
 Total Coulomb:            400.93645543900936
 Nuclear repulsion:        272.46182140955085
    3    -270.9578842626      7.86e-04  
Finding J and K together
 Job number = 22, Threshold = 1.00E-08
Integral type ranges set in mkLRange.C for JobNum: 22  <1-21|1-21>
 MakeJK  time:  CPU      13.34 s  wall      13.39 s
 HF Exchange:              -39.85326990248593
 One-Electron:             -904.15826329471076
 Total Coulomb:            400.58581106299437
 Nuclear repulsion:        272.46182140955085
    4    -270.9632701753      2.96e-04  
Finding J and K together
 Job number = 22, Threshold = 1.00E-08
Integral type ranges set in mkLRange.C for JobNum: 22  <1-21|1-21>
 MakeJK  time:  CPU      11.68 s  wall      11.81 s
 HF Exchange:              -39.85516880525464
 One-Electron:             -904.18111905887531
 Total Coulomb:            400.61055161353187
 Nuclear repulsion:        272.46182140955085
    5    -270.9639007247      3.31e-05  
    6    -270.9639148410      9.89e-06  Convergence criterion met
 ---------------------------------------
 SCF time:   CPU 65.49s  wall 66.00s 
 Total energy in the final basis set =     -270.9639148410
 HF Exchange:              -39.85516880525464
 One-Electron:             -904.18111905887531
 Total Coulomb:            400.61055161353187
 Nuclear repulsion:        272.46182140955085
Wall  1 = 67
Clock 1 = 65.80111694335938
 ==================================================
                  Done GEN_SCFMAN                  
 ==================================================

Symmetry turned off temporarily

 --------------------------------------------------------------
             Orbital Energies (a.u.) and Symmetries
 --------------------------------------------------------------
 Warning : Irrep of orbital(   2) could not be determined
 Warning : Irrep of orbital(   3) could not be determined
 Warning : Irrep of orbital(   4) could not be determined
 Warning : Irrep of orbital(   5) could not be determined
 Warning : Irrep of orbital(   9) could not be determined
 Warning : Irrep of orbital(  10) could not be determined
 Warning : Irrep of orbital(  12) could not be determined
 Warning : Irrep of orbital(  13) could not be determined
 Warning : Irrep of orbital(  17) could not be determined
 Warning : Irrep of orbital(  18) could not be determined
 Warning : Irrep of orbital(  20) could not be determined
 Warning : Irrep of orbital(  21) could not be determined
 Warning : Irrep of orbital(  22) could not be determined
 Warning : Irrep of orbital(  23) could not be determined
 Warning : Irrep of orbital(  25) could not be determined
 Warning : Irrep of orbital(  26) could not be determined
 Warning : Irrep of orbital(  28) could not be determined
 Warning : Irrep of orbital(  29) could not be determined
 Warning : Irrep of orbital(  31) could not be determined
 Warning : Irrep of orbital(  32) could not be determined
 Warning : Irrep of orbital(  34) could not be determined
 Warning : Irrep of orbital(  35) could not be determined
 Warning : Irrep of orbital(  36) could not be determined
 Warning : Irrep of orbital(  37) could not be determined
 Warning : Irrep of orbital(  41) could not be determined
 Warning : Irrep of orbital(  42) could not be determined
 Warning : Irrep of orbital(  43) could not be determined
 Warning : Irrep of orbital(  44) could not be determined
 Warning : Irrep of orbital(  45) could not be determined
 Warning : Irrep of orbital(  46) could not be determined
 Warning : Irrep of orbital(  48) could not be determined
 Warning : Irrep of orbital(  49) could not be determined
 Warning : Irrep of orbital(  52) could not be determined
 Warning : Irrep of orbital(  53) could not be determined
 Warning : Irrep of orbital(  55) could not be determined
 Warning : Irrep of orbital(  56) could not be determined
 Warning : Irrep of orbital(  58) could not be determined
 Warning : Irrep of orbital(  59) could not be determined
 Warning : Irrep of orbital(  60) could not be determined
 Warning : Irrep of orbital(  61) could not be determined
 Warning : Irrep of orbital(  63) could not be determined
 Warning : Irrep of orbital(  64) could not be determined
 Warning : Irrep of orbital(  68) could not be determined
 Warning : Irrep of orbital(  69) could not be determined
 Warning : Irrep of orbital(  72) could not be determined
 Warning : Irrep of orbital(  73) could not be determined
 Warning : Irrep of orbital(  74) could not be determined
 Warning : Irrep of orbital(  75) could not be determined
 Warning : Irrep of orbital(  78) could not be determined
 Warning : Irrep of orbital(  79) could not be determined
 Warning : Irrep of orbital(  80) could not be determined
 Warning : Irrep of orbital(  81) could not be determined
 Warning : Irrep of orbital(  82) could not be determined
 Warning : Irrep of orbital(  83) could not be determined
 Warning : Irrep of orbital(  88) could not be determined
 Warning : Irrep of orbital(  89) could not be determined
 Warning : Irrep of orbital(  91) could not be determined
 Warning : Irrep of orbital(  92) could not be determined
 Warning : Irrep of orbital(  93) could not be determined
 Warning : Irrep of orbital(  94) could not be determined
 Warning : Irrep of orbital(  96) could not be determined
 Warning : Irrep of orbital(  97) could not be determined
 Warning : Irrep of orbital( 101) could not be determined
 Warning : Irrep of orbital( 102) could not be determined
 Warning : Irrep of orbital( 103) could not be determined
 Warning : Irrep of orbital( 104) could not be determined
 Warning : Irrep of orbital( 105) could not be determined
 Warning : Irrep of orbital( 106) could not be determined
 Warning : Irrep of orbital( 109) could not be determined
 Warning : Irrep of orbital( 110) could not be determined
 Warning : Irrep of orbital( 112) could not be determined
 Warning : Irrep of orbital( 113) could not be determined
 Warning : Irrep of orbital( 116) could not be determined
 Warning : Irrep of orbital( 117) could not be determined
 Warning : Irrep of orbital( 119) could not be determined
 Warning : Irrep of orbital( 120) could not be determined
 Warning : Irrep of orbital( 122) could not be determined
 Warning : Irrep of orbital( 123) could not be determined
 Warning : Irrep of orbital( 124) could not be determined
 Warning : Irrep of orbital( 125) could not be determined
 Warning : Irrep of orbital( 127) could not be determined
 Warning : Irrep of orbital( 128) could not be determined
 Warning : Irrep of orbital( 133) could not be determined
 Warning : Irrep of orbital( 134) could not be determined
 Warning : Irrep of orbital( 136) could not be determined
 Warning : Irrep of orbital( 137) could not be determined
 Warning : Irrep of orbital( 139) could not be determined
 Warning : Irrep of orbital( 140) could not be determined
 Warning : Irrep of orbital( 141) could not be determined
 Warning : Irrep of orbital( 142) could not be determined
 Warning : Irrep of orbital( 144) could not be determined
 Warning : Irrep of orbital( 145) could not be determined
 Warning : Irrep of orbital( 146) could not be determined
 Warning : Irrep of orbital( 147) could not be determined
 Warning : Irrep of orbital( 149) could not be determined
 Warning : Irrep of orbital( 150) could not be determined
 Warning : Irrep of orbital( 151) could not be determined
 Warning : Irrep of orbital( 152) could not be determined
 Warning : Irrep of orbital( 154) could not be determined
 Warning : Irrep of orbital( 155) could not be determined
 Warning : Irrep of orbital( 157) could not be determined
 Warning : Irrep of orbital( 158) could not be determined
 Warning : Irrep of orbital( 160) could not be determined
 Warning : Irrep of orbital( 161) could not be determined
 Warning : Irrep of orbital( 163) could not be determined
 Warning : Irrep of orbital( 164) could not be determined
 Warning : Irrep of orbital( 165) could not be determined
 Warning : Irrep of orbital( 166) could not be determined
 Warning : Irrep of orbital( 168) could not be determined
 Warning : Irrep of orbital( 169) could not be determined
 Warning : Irrep of orbital( 172) could not be determined
 Warning : Irrep of orbital( 173) could not be determined
 Warning : Irrep of orbital( 174) could not be determined
 Warning : Irrep of orbital( 175) could not be determined
 Warning : Irrep of orbital( 177) could not be determined
 Warning : Irrep of orbital( 178) could not be determined
 Warning : Irrep of orbital( 180) could not be determined
 Warning : Irrep of orbital( 181) could not be determined
 Warning : Irrep of orbital( 182) could not be determined
 Warning : Irrep of orbital( 183) could not be determined
 Warning : Irrep of orbital( 186) could not be determined
 Warning : Irrep of orbital( 187) could not be determined
 Warning : Irrep of orbital( 188) could not be determined
 Warning : Irrep of orbital( 189) could not be determined
 Warning : Irrep of orbital( 193) could not be determined
 Warning : Irrep of orbital( 194) could not be determined
 Warning : Irrep of orbital( 196) could not be determined
 Warning : Irrep of orbital( 197) could not be determined
 Warning : Irrep of orbital( 198) could not be determined
 Warning : Irrep of orbital( 199) could not be determined
 Warning : Irrep of orbital( 203) could not be determined
 Warning : Irrep of orbital( 204) could not be determined
 Warning : Irrep of orbital( 205) could not be determined
 Warning : Irrep of orbital( 206) could not be determined
 Warning : Irrep of orbital( 209) could not be determined
 Warning : Irrep of orbital( 210) could not be determined
 Warning : Irrep of orbital( 212) could not be determined
 Warning : Irrep of orbital( 213) could not be determined
 Warning : Irrep of orbital( 215) could not be determined
 Warning : Irrep of orbital( 216) could not be determined
 Warning : Irrep of orbital( 219) could not be determined
 Warning : Irrep of orbital( 220) could not be determined
 Warning : Irrep of orbital( 222) could not be determined
 Warning : Irrep of orbital( 223) could not be determined

 Alpha MOs, Restricted
 -- Occupied --                  
-11.239 -11.239 -11.239 -11.237 -11.237 -11.237 -11.193  -1.154
  1 A     0 xxx   0 xxx   0 xxx   0 xxx   2 A     3 A     4 A                  
 -1.018  -1.018  -0.932  -0.827  -0.827  -0.713  -0.646  -0.622
  0 xxx   0 xxx   5 A     0 xxx   0 xxx   6 A     7 A     8 A                  
 -0.591  -0.591  -0.541  -0.534  -0.534  -0.497  -0.497  -0.495
  0 xxx   0 xxx   9 A     0 xxx   0 xxx   0 xxx   0 xxx  10 A                  
 -0.339  -0.339
  0 xxx   0 xxx                                                                
 -- Virtual --                   
  0.039   0.048   0.048   0.060   0.066   0.066   0.088   0.089
 11 A     0 xxx   0 xxx  12 A     0 xxx   0 xxx  13 A     0 xxx                
  0.089   0.108   0.108   0.126   0.134   0.163   0.166   0.166
  0 xxx   0 xxx   0 xxx  14 A    15 A    16 A     0 xxx   0 xxx                
  0.172   0.172   0.180   0.180   0.182   0.192   0.192   0.195
  0 xxx   0 xxx   0 xxx   0 xxx  17 A     0 xxx   0 xxx  18 A                  
  0.209   0.212   0.212   0.216   0.227   0.227   0.239   0.250
 19 A     0 xxx   0 xxx  20 A     0 xxx   0 xxx  21 A     0 xxx                
  0.250   0.257   0.257   0.279   0.295   0.295   0.303   0.330
  0 xxx   0 xxx   0 xxx  22 A     0 xxx   0 xxx  23 A    24 A                  
  0.339   0.346   0.346   0.368   0.388   0.410   0.410   0.430
 25 A     0 xxx   0 xxx  26 A    27 A     0 xxx   0 xxx   0 xxx                
  0.430   0.438   0.442   0.499   0.499   0.509   0.509   0.584
  0 xxx  28 A    29 A     0 xxx   0 xxx   0 xxx   0 xxx   0 xxx                
  0.584   0.592   0.603   0.644   0.728   0.734   0.734   0.751
  0 xxx  30 A    31 A    32 A    33 A     0 xxx   0 xxx  34 A                  
  0.758   0.758   0.774   0.774   0.789   0.824   0.824   0.862
  0 xxx   0 xxx   0 xxx   0 xxx  35 A     0 xxx   0 xxx  36 A                  
  0.881   0.886   0.891   0.891   0.942   0.942   0.951   0.951
 37 A    38 A     0 xxx   0 xxx   0 xxx   0 xxx   0 xxx   0 xxx                
  0.972   1.012   1.024   1.024   1.033   1.064   1.064   1.108
 39 A    40 A     0 xxx   0 xxx  41 A     0 xxx   0 xxx  42 A                  
  1.130   1.130   1.130   1.159   1.217   1.217   1.248   1.255
 43 A     0 xxx   0 xxx  44 A     0 xxx   0 xxx  45 A     0 xxx                
  1.255   1.329   1.329   1.360   1.391   1.391   1.523   1.585
  0 xxx   0 xxx   0 xxx  46 A     0 xxx   0 xxx  47 A    48 A                  
  1.710   1.739   1.751   1.751   1.778   1.789   1.789   1.826
 49 A    50 A     0 xxx   0 xxx  51 A     0 xxx   0 xxx  52 A                  
  1.838   1.838   1.845   1.845   1.866   1.911   1.911   1.940
  0 xxx   0 xxx   0 xxx   0 xxx  53 A     0 xxx   0 xxx   0 xxx                
  1.940   2.025   2.057   2.057   2.106   2.106   2.131   2.214
  0 xxx  54 A     0 xxx   0 xxx   0 xxx   0 xxx  55 A     0 xxx                
  2.214   2.238   2.238   2.238   2.262   2.270   2.270   2.298
  0 xxx  56 A     0 xxx   0 xxx  57 A     0 xxx   0 xxx  58 A                  
  2.347   2.347   2.379   2.379   2.640   2.658   2.658   2.662
  0 xxx   0 xxx   0 xxx   0 xxx  59 A     0 xxx   0 xxx  60 A                  
  2.735   2.743   2.743   2.817   2.817   2.820   2.833   2.833
 61 A     0 xxx   0 xxx   0 xxx   0 xxx  62 A     0 xxx   0 xxx                
  2.853   2.956   2.956   2.965   2.965   2.994   3.002   3.044
 63 A     0 xxx   0 xxx   0 xxx   0 xxx  64 A    65 A     0 xxx                
  3.044   3.056   3.056   3.090   3.100   3.131   3.207   3.207
  0 xxx   0 xxx   0 xxx  66 A    67 A    68 A     0 xxx   0 xxx                
  3.267   3.296   3.296   3.330   3.330   3.355   3.481   3.549
 69 A     0 xxx   0 xxx   0 xxx   0 xxx  70 A    71 A    72 A                  
  3.778   3.778   3.915   3.915   3.967   4.083   4.226   4.226
  0 xxx   0 xxx   0 xxx   0 xxx  73 A    74 A     0 xxx   0 xxx                
  4.246   4.411   4.411   4.500   4.579   4.579   5.278  24.771
 75 A     0 xxx   0 xxx  76 A     0 xxx   0 xxx  77 A    78 A                  
 25.142  25.142  25.237  25.261  25.261  25.373
  0 xxx   0 xxx  79 A     0 xxx   0 xxx  80 A                                  

 Beta MOs, Restricted
 -- Occupied --                  
-11.239 -11.239 -11.239 -11.237 -11.237 -11.237 -11.193  -1.154
  1 A     0 xxx   0 xxx   0 xxx   0 xxx   2 A     3 A     4 A                  
 -1.018  -1.018  -0.932  -0.827  -0.827  -0.713  -0.646  -0.622
  0 xxx   0 xxx   5 A     0 xxx   0 xxx   6 A     7 A     8 A                  
 -0.591  -0.591  -0.541  -0.534  -0.534  -0.497  -0.497  -0.495
  0 xxx   0 xxx   9 A     0 xxx   0 xxx   0 xxx   0 xxx  10 A                  
 -0.339  -0.339
  0 xxx   0 xxx                                                                
 -- Virtual --                   
  0.039   0.048   0.048   0.060   0.066   0.066   0.088   0.089
 11 A     0 xxx   0 xxx  12 A     0 xxx   0 xxx  13 A     0 xxx                
  0.089   0.108   0.108   0.126   0.134   0.163   0.166   0.166
  0 xxx   0 xxx   0 xxx  14 A    15 A    16 A     0 xxx   0 xxx                
  0.172   0.172   0.180   0.180   0.182   0.192   0.192   0.195
  0 xxx   0 xxx   0 xxx   0 xxx  17 A     0 xxx   0 xxx  18 A                  
  0.209   0.212   0.212   0.216   0.227   0.227   0.239   0.250
 19 A     0 xxx   0 xxx  20 A     0 xxx   0 xxx  21 A     0 xxx                
  0.250   0.257   0.257   0.279   0.295   0.295   0.303   0.330
  0 xxx   0 xxx   0 xxx  22 A     0 xxx   0 xxx  23 A    24 A                  
  0.339   0.346   0.346   0.368   0.388   0.410   0.410   0.430
 25 A     0 xxx   0 xxx  26 A    27 A     0 xxx   0 xxx   0 xxx                
  0.430   0.438   0.442   0.499   0.499   0.509   0.509   0.584
  0 xxx  28 A    29 A     0 xxx   0 xxx   0 xxx   0 xxx   0 xxx                
  0.584   0.592   0.603   0.644   0.728   0.734   0.734   0.751
  0 xxx  30 A    31 A    32 A    33 A     0 xxx   0 xxx  34 A                  
  0.758   0.758   0.774   0.774   0.789   0.824   0.824   0.862
  0 xxx   0 xxx   0 xxx   0 xxx  35 A     0 xxx   0 xxx  36 A                  
  0.881   0.886   0.891   0.891   0.942   0.942   0.951   0.951
 37 A    38 A     0 xxx   0 xxx   0 xxx   0 xxx   0 xxx   0 xxx                
  0.972   1.012   1.024   1.024   1.033   1.064   1.064   1.108
 39 A    40 A     0 xxx   0 xxx  41 A     0 xxx   0 xxx  42 A                  
  1.130   1.130   1.130   1.159   1.217   1.217   1.248   1.255
 43 A     0 xxx   0 xxx  44 A     0 xxx   0 xxx  45 A     0 xxx                
  1.255   1.329   1.329   1.360   1.391   1.391   1.523   1.585
  0 xxx   0 xxx   0 xxx  46 A     0 xxx   0 xxx  47 A    48 A                  
  1.710   1.739   1.751   1.751   1.778   1.789   1.789   1.826
 49 A    50 A     0 xxx   0 xxx  51 A     0 xxx   0 xxx  52 A                  
  1.838   1.838   1.845   1.845   1.866   1.911   1.911   1.940
  0 xxx   0 xxx   0 xxx   0 xxx  53 A     0 xxx   0 xxx   0 xxx                
  1.940   2.025   2.057   2.057   2.106   2.106   2.131   2.214
  0 xxx  54 A     0 xxx   0 xxx   0 xxx   0 xxx  55 A     0 xxx                
  2.214   2.238   2.238   2.238   2.262   2.270   2.270   2.298
  0 xxx  56 A     0 xxx   0 xxx  57 A     0 xxx   0 xxx  58 A                  
  2.347   2.347   2.379   2.379   2.640   2.658   2.658   2.662
  0 xxx   0 xxx   0 xxx   0 xxx  59 A     0 xxx   0 xxx  60 A                  
  2.735   2.743   2.743   2.817   2.817   2.820   2.833   2.833
 61 A     0 xxx   0 xxx   0 xxx   0 xxx  62 A     0 xxx   0 xxx                
  2.853   2.956   2.956   2.965   2.965   2.994   3.002   3.044
 63 A     0 xxx   0 xxx   0 xxx   0 xxx  64 A    65 A     0 xxx                
  3.044   3.056   3.056   3.090   3.100   3.131   3.207   3.207
  0 xxx   0 xxx   0 xxx  66 A    67 A    68 A     0 xxx   0 xxx                
  3.267   3.296   3.296   3.330   3.330   3.355   3.481   3.549
 69 A     0 xxx   0 xxx   0 xxx   0 xxx  70 A    71 A    72 A                  
  3.778   3.778   3.915   3.915   3.967   4.083   4.226   4.226
  0 xxx   0 xxx   0 xxx   0 xxx  73 A    74 A     0 xxx   0 xxx                
  4.246   4.411   4.411   4.500   4.579   4.579   5.278  24.771
 75 A     0 xxx   0 xxx  76 A     0 xxx   0 xxx  77 A    78 A                  
 25.142  25.142  25.237  25.261  25.261  25.373
  0 xxx   0 xxx  79 A     0 xxx   0 xxx  80 A                                  
 --------------------------------------------------------------

          Ground-State Mulliken Net Atomic Charges

     Atom                 Charge (a.u.)
  ----------------------------------------
      1 C                    -0.089669
      2 C                    -0.313872
      3 C                    -0.089669
      4 C                    -0.313872
      5 C                    -0.089669
      6 C                    -0.313872
      7 H                     0.205038
      8 H                     0.201243
      9 H                     0.205038
     10 H                     0.201243
     11 H                     0.205038
     12 H                     0.201243
     13 C                    -0.532420
     14 H                     0.111392
     15 H                     0.111392
     16 H                     0.190024
     17 H                     0.111392
  ----------------------------------------
  Sum of atomic charges =    -0.000000

 -----------------------------------------------------------------
                    Cartesian Multipole Moments
 -----------------------------------------------------------------
    Charge (ESU x 10^10)
                -0.0000
    Dipole Moment (Debye)
         X       0.0000      Y      -0.0000      Z       0.1806
       Tot       0.1806
    Quadrupole Moments (Debye-Ang)
        XX     -40.3578     XY       0.0000     YY     -40.3578
        XZ      -0.0000     YZ       0.0000     ZZ     -50.6021
    Octopole Moments (Debye-Ang^2)
       XXX       0.5214    XXY       0.0005    XYY      -0.5214
       YYY      -0.0005    XXZ       2.3086    XYZ      -0.0000
       YYZ       2.3086    XZZ       0.0000    YZZ      -0.0000
       ZZZ      -7.6781
    Hexadecapole Moments (Debye-Ang^3)
      XXXX    -286.0960   XXXY       0.0000   XXYY     -95.3653
      XYYY       0.0000   YYYY    -286.0960   XXXZ      -1.9082
      XXYZ       0.0002   XYYZ       1.9082   YYYZ      -0.0002
      XXZZ    -162.4195   XYZZ       0.0000   YYZZ    -162.4195
      XZZZ      -0.0000   YZZZ       0.0000   ZZZZ    -675.2191
 -----------------------------------------------------------------
 Mayer SCF Bond Order, atomic valence on the diagonal:

            1           2           3           4           5           6
    1   4.2959190   1.8297242  -0.0924517   0.0312744  -0.0924516   1.8438707
    2   1.8297242   4.6535909   1.8438708  -0.0534113   0.0312744  -0.0534114
    3  -0.0924517   1.8438708   4.2959189   1.8297241  -0.0924516   0.0312744
    4   0.0312744  -0.0534113   1.8297241   4.6535908   1.8438708  -0.0534114
    5  -0.0924516   0.0312744  -0.0924516   1.8438708   4.2959193   1.8297241
    6   1.8438707  -0.0534114   0.0312744  -0.0534114   1.8297241   4.6535909
    7   0.7811854   0.0826694  -0.0220366   0.0084225  -0.0216436   0.0831183
    8   0.1005468   0.7581502   0.1010414  -0.0281615   0.0117183  -0.0284939
    9  -0.0216436   0.0831183   0.7811854   0.0826694  -0.0220366   0.0084225
   10   0.0117183  -0.0284939   0.1005467   0.7581502   0.1010414  -0.0281615
   11  -0.0220366   0.0084225  -0.0216436   0.0831183   0.7811854   0.0826694
   12   0.1010414  -0.0281615   0.0117183  -0.0284939   0.1005468   0.7581502
   13  -0.1031735   0.0855100  -0.1031735   0.0855098  -0.1031735   0.0855097
   14   0.0014355  -0.0047359   0.0046251  -0.0056589   0.0014632   0.0062173
   15   0.0046251  -0.0056589   0.0014632   0.0062173   0.0014356  -0.0047359
   16  -0.0792089   0.0985068  -0.0792091   0.0985070  -0.0792086   0.0985073
   17   0.0014633   0.0062172   0.0014356  -0.0047359   0.0046250  -0.0056589
            7           8           9          10          11          12
    1   0.7811854   0.1005468  -0.0216436   0.0117183  -0.0220366   0.1010414
    2   0.0826694   0.7581502   0.0831183  -0.0284939   0.0084225  -0.0281615
    3  -0.0220366   0.1010414   0.7811854   0.1005467  -0.0216436   0.0117183
    4   0.0084225  -0.0281615   0.0826694   0.7581502   0.0831183  -0.0284939
    5  -0.0216436   0.0117183  -0.0220366   0.1010414   0.7811854   0.1005468
    6   0.0831183  -0.0284939   0.0084225  -0.0281615   0.0826694   0.7581502
    7   0.9248291   0.0098761   0.0007158   0.0000099   0.0007158   0.0097813
    8   0.0098761   0.9354658   0.0097813   0.0006475   0.0000099   0.0006475
    9   0.0007158   0.0097813   0.9248291   0.0098761   0.0007158   0.0000099
   10   0.0000099   0.0006475   0.0098761   0.9354658   0.0097813   0.0006475
   11   0.0007158   0.0000099   0.0007158   0.0097813   0.9248292   0.0098761
   12   0.0097813   0.0006475   0.0000099   0.0006475   0.0098761   0.9354658
   13  -0.0022901   0.0021299  -0.0022901   0.0021299  -0.0022901   0.0021299
   14  -0.0000418  -0.0000767  -0.0002457  -0.0001962  -0.0000093   0.0004838
   15  -0.0002457  -0.0001962  -0.0000093   0.0004838  -0.0000418  -0.0000767
   16  -0.0053982  -0.0026386  -0.0053983  -0.0026386  -0.0053982  -0.0026386
   17  -0.0000093   0.0004838  -0.0000418  -0.0000767  -0.0002457  -0.0001962
           13          14          15          16          17
    1  -0.1031735   0.0014355   0.0046251  -0.0792089   0.0014633
    2   0.0855100  -0.0047359  -0.0056589   0.0985068   0.0062172
    3  -0.1031735   0.0046251   0.0014632  -0.0792091   0.0014356
    4   0.0855098  -0.0056589   0.0062173   0.0985070  -0.0047359
    5  -0.1031735   0.0014632   0.0014356  -0.0792086   0.0046250
    6   0.0855097   0.0062173  -0.0047359   0.0985073  -0.0056589
    7  -0.0022901  -0.0000418  -0.0002457  -0.0053982  -0.0000093
    8   0.0021299  -0.0000767  -0.0001962  -0.0026386   0.0004838
    9  -0.0022901  -0.0002457  -0.0000093  -0.0053983  -0.0000418
   10   0.0021299  -0.0001962   0.0004838  -0.0026386  -0.0000767
   11  -0.0022901  -0.0000093  -0.0000418  -0.0053982  -0.0002457
   12   0.0021299   0.0004838  -0.0000767  -0.0026386  -0.0001962
   13   3.7900647   1.0006481   1.0006480   0.8415923   1.0006478
   14   1.0006481   0.9336286  -0.0145491  -0.0411818  -0.0145491
   15   1.0006480  -0.0145491   0.9336285  -0.0411818  -0.0145491
   16   0.8415923  -0.0411818  -0.0411818   0.7518310  -0.0411818
   17   1.0006478  -0.0145491  -0.0145491  -0.0411818   0.9336284


 JobOver = TRUE
Archival summary:
1\1\qciep03\SP\HF\BasisUnspecified\710\jcartus\ThuJan2517:26:402018ThuJan2517:26:402018\0\\#,HF,BasisUnspecified,\\0,1\C\H,1,1.08143\C,1,1.39368,2,119.999\H,3,1.08142,1,120,2,0.00133905,0\C,3,1.39369,1,119.999,2,-179.905,0\H,5,1.08143,3,120,1,179.905,0\C,5,1.39368,3,120.001,1,0.00304914,0\H,7,1.08142,5,120,3,179.904,0\C,7,1.39369,5,119.999,3,-0.00304913,0\H,9,1.08143,7,120,5,179.905,0\C,9,1.39368,7,120.001,5,0.00304914,0\H,11,1.08142,9,120,7,179.904,0\H,11,2.97641,9,76.4607,7,65.3467,0\C,13,1.08595,11,152.08,9,117.029,0\H,14,1.08595,13,109.571,11,53.5087,0\H,14,1.08595,13,109.571,11,-66.4913,0\H,14,1.08595,13,109.571,11,173.509,0\\HF=-270.963915\\@

 Total job time:  68.48s(wall), 67.95s(cpu) 
 Thu Jan 25 17:26:40 2018

        *************************************************************
        *                                                           *
        *  Thank you very much for using Q-Chem.  Have a nice day.  *
        *                                                           *
        *************************************************************


*** MISSION COMPLETED -- STARFLEET OUT ***

0 sent ACK to 0 
now end server 0 ... 
