Process 0 of 1 is on qciep03 - thread support 0
initial socket setup ...start
initial socket setup ...done 
now start server 0 ... 
qciep03.tugraz.at 127.0.1
Q-Chem Developer Version! Running on 127.0.1.*
                  Welcome to Q-Chem
     A Quantum Leap Into The Future Of Chemistry


 Q-Chem 5.0, Q-Chem, Inc., Pleasanton, CA (2017)

 Yihan Shao,  Zhengting Gan,  E. Epifanovsky,  A. T. B. Gilbert,  M. Wormit,  
 J. Kussmann,  A. W. Lange,  A. Behn,  Jia Deng,  Xintian Feng,  D. Ghosh,  
 M. Goldey,  P. R. Horn,  L. D. Jacobson,  I. Kaliman,  T. Kus,  A. Landau,  
 Jie Liu,  E. I. Proynov,  R. M. Richard,  R. P. Steele,  E. J. Sundstrom,  
 H. L. Woodcock III,  P. M. Zimmerman,  D. Zuev,  B. Albrecht,  E. Alguire,  
 S. A. Baeppler,  D. Barton,  Z. Benda,  Y. A. Bernard,  E. J. Berquist,  
 K. B. Bravaya,  H. Burton,  D. Casanova,  Chun-Min Chang,  Yunqing Chen,  
 A. Chien,  K. D. Closser,  M. P. Coons,  S. Dasgupta,  A. L. Dempwolff,  
 M. Diedenhofen,  Hainam Do,  R. G. Edgar,  Po-Tung Fang,  S. Fatehi,  
 Qingguo Feng,  J. Fosso-Tande,  Qinghui Ge,  A. Ghysels,  G. Gidofalvi,  
 J. Gomes,  J. Gonthier,  A. Gunina,  M. W. D. Hanson-Heine,  
 P. H. P. Harbach,  A. W. Hauser,  J. E. Herr,  E. G. Hohenstein,  
 Z. C. Holden,  Kerwin Hui,  T.-C. Jagau,  Hyunjun Ji,  B. Kaduk,  
 K. Khistyaev,  Jaehoon Kim,  P. Klunzinger,  K. Koh,  D. Kosenkov,  
 L. Koulias,  T. Kowalczyk,  C. M. Krauter,  A. Kunitsa,  Ka Un Lao,  
 A. Laurent,  K. V. Lawler,  Joonho Lee,  D. Lefrancois,  S. Lehtola,  
 D. S. Levine,  Yi-Pei Li,  You-Sheng Lin,  Fenglai Liu,  E. Livshits,  
 A. Luenser,  P. Manohar,  E. Mansoor,  S. F. Manzer,  Shan-Ping Mao,  
 Yuezhi Mao,  N. Mardirossian,  A. V. Marenich,  T. Markovich,  
 L. A. Martinez-Martinez,  S. A. Maurer,  N. J. Mayhall,  S. C. McKenzie,  
 J.-M. Mewes,  A. F. Morrison,  J. W. Mullinax,  K. Nanda,  
 T. S. Nguyen-Beck,  R. Olivares-Amaya,  J. A. Parkhill,  T. M. Perrine,  
 F. Plasser,  S. Prager,  A. Prociuk,  E. Ramos,  D. R. Rehn,  F. Rob,  
 M. Schneider,  N. Sergueev,  S. M. Sharada,  S. Sharma,  D. W. Small,  
 T. Stauch,  T. Stein,  Yu-Chuan Su,  A. J. W. Thom,  A. Tkatchenko,  
 T. Tsuchimochi,  L. Vogt,  O. Vydrov,  M. A. Watson,  J. Wenzel,  
 M. de Wergifosse,  T. A. Wesolowski,  A. White,  J. Witte,  A. Yamada,  
 Jun Yang,  K. Yao,  S. Yeganeh,  S. R. Yost,  Zhi-Qiang You,  A. Zech,  
 Igor Ying Zhang,  Xing Zhang,  Yan Zhao,  Ying Zhu,  B. R. Brooks,  
 G. K. L. Chan,  C. J. Cramer,  M. S. Gordon,  W. J. Hehre,  A. Klamt,  
 M. W. Schmidt,  C. D. Sherrill,  D. G. Truhlar,  A. Aspuru-Guzik,  R. Baer,  
 A. T. Bell,  N. A. Besley,  Jeng-Da Chai,  R. A. DiStasio Jr.,  A. Dreuw,  
 B. D. Dunietz,  T. R. Furlani,  Chao-Ping Hsu,  Yousung Jung,  Jing Kong,  
 D. S. Lambrecht,  WanZhen Liang,  C. Ochsenfeld,  V. A. Rassolov,  
 L. V. Slipchenko,  J. E. Subotnik,  T. Van Voorhis,  J. M. Herbert,  
 A. I. Krylov,  P. M. W. Gill,  M. Head-Gordon

 Contributors to earlier versions of Q-Chem not listed above: 
 R. D. Adamson,  B. Austin,  J. Baker,  G. J. O. Beran,  K. Brandhorst,  
 S. T. Brown,  E. F. C. Byrd,  A. K. Chakraborty,  C.-L. Cheng,  
 Siu Hung Chien,  D. M. Chipman,  D. L. Crittenden,  H. Dachsel,  
 R. J. Doerksen,  A. D. Dutoi,  L. Fusti-Molnar,  W. A. Goddard III,  
 A. Golubeva-Zadorozhnaya,  S. R. Gwaltney,  G. Hawkins,  A. Heyden,  
 S. Hirata,  G. Kedziora,  F. J. Keil,  C. Kelley,  Jihan Kim,  R. A. King,  
 R. Z. Khaliullin,  P. P. Korambath,  W. Kurlancheek,  A. M. Lee,  M. S. Lee,  
 S. V. Levchenko,  Ching Yeh Lin,  D. Liotard,  R. C. Lochan,  I. Lotan,  
 P. E. Maslen,  N. Nair,  D. P. O'Neill,  D. Neuhauser,  E. Neuscamman,  
 C. M. Oana,  R. Olson,  B. Peters,  R. Peverati,  P. A. Pieniazek,  
 Y. M. Rhee,  J. Ritchie,  M. A. Rohrdanz,  E. Rosta,  N. J. Russ,  
 H. F. Schaefer III,  N. E. Schultz,  N. Shenvi,  A. C. Simmonett,  A. Sodt,  
 D. Stuck,  K. S. Thanthiriwatte,  V. Vanovschi,  Tao Wang,  A. Warshel,  
 C. F. Williams,  Q. Wu,  X. Xu,  W. Zhang

 Please cite Q-Chem as follows:
 Y. Shao et al., Mol. Phys. 113, 184-215 (2015)
 DOI: 10.1080/00268976.2014.952696

 Q-Chem 5.0.2 for Intel X86 EM64T Linux

 Parts of Q-Chem use Armadillo 5.200.1 (Boston Tea Smuggler).
 http://arma.sourceforge.net/

 Q-Chem begins on Thu Jan 25 17:19:46 2018  


Host: 0

     Scratch files written to /home/jcartus/scratch/Indole-benzene-complex-stack_mono2.dir//
 Using version located at /usr/local/qchem/bin/qchem

 Parallel job on  1  processors

Total Memory Limit in MB = 2000
Mega-Array Size in MB = 192

Checking the input file for inconsistencies... 	...done.
Finally everything over in PARseQInput

--------------------------------------------------------------
User input:
--------------------------------------------------------------
$rem
SCF_PRINT                     1
BASIS                         6-311++g**
SCF_SAVE_MATRICES             1
SCF_CONVERGENCE               5
SCF_FINAL_PRINT               1
METHOD                        hf
JOBTYPE                       sp
$end

$molecule
0 1
C    -0.0210742    1.5318615    -1.3639345
C    -1.2746794    0.974103    -1.6074097
C    -1.3783055    -0.2256981    -2.3084154
C    -0.2289426    -0.8664053    -2.7687944
C    1.0247882    -0.3035171    -2.531241
C    1.1289996    0.8966787    -1.829983
H    0.060074    2.4565627    -0.8093957
H    -2.1651002    1.4654521    -1.2405676
H    -2.3509735    -0.6616122    -2.4926698
H    -0.3103419    -1.7955762    -3.3172704
H    1.9165847    -0.7940845    -2.8993942
H    2.1000347    1.3326757    -1.640042
$end


--------------------------------------------------------------
 ----------------------------------------------------------------
             Standard Nuclear Orientation (Angstroms)
    I     Atom           X                Y                Z
 ----------------------------------------------------------------
    1      C       0.3349353792    -1.3521240598    -0.0011365843
    2      C      -1.0042667296    -0.9668787052     0.0038074144
    3      C      -1.3393420473     0.3856696485     0.0010647850
    4      C      -0.3356755395     1.3532039909    -0.0034577370
    5      C       1.0043679253     0.9666918273    -0.0007150831
    6      C       1.3400964805    -0.3862205347     0.0019746496
    7      H       0.5948897258    -2.4016430397    -0.0113477991
    8      H      -1.7823791597    -1.7174296082    -0.0039806262
    9      H      -2.3788334513     0.6848490728    -0.0007009360
   10      H      -0.5964741331     2.4033405887    -0.0007100742
   11      H       1.7839304906     1.7174855958     0.0085084758
   12      H       2.3781737155    -0.6886556122    -0.0009937082
 ----------------------------------------------------------------
 Molecular Point Group                 C1    NOp =  1
 Largest Abelian Subgroup              C1    NOp =  1
 Nuclear Repulsion Energy =   203.6695344115 hartrees
 There are       21 alpha and       21 beta electrons
 Requested basis set is 6-311++G(d,p)
 There are 66 shells and 174 basis functions

 Total QAlloc Memory Limit   2000 MB
 Mega-Array Size       188 MB
 MEM_STATIC part       192 MB

finished with qalloc call

                       Distance Matrix (Angstroms)
             C (  1)   C (  2)   C (  3)   C (  4)   C (  5)   C (  6)
   C (  2)  1.393521
   C (  3)  2.413118  1.393438
   C (  4)  2.787207  2.414508  1.394091
   C (  5)  2.413513  2.788069  2.414657  1.394674
   C (  6)  1.394033  2.415203  2.788406  2.415334  1.393949
   H (  7)  1.081282  2.148506  3.392716  3.868448  3.393150  2.148823
   H (  8)  2.148599  1.081132  2.149264  3.394369  3.869170  3.394408
   H (  9)  3.393199  2.148874  1.081690  2.149698  3.394921  3.870095
   H ( 10)  3.869243  3.394804  2.150082  1.082040  2.150966  3.395875
   H ( 11)  3.394434  3.870385  3.395382  2.150715  1.082356  2.150026
   H ( 12)  2.148258  3.393867  3.869639  3.396200  2.151167  1.081240
             H (  7)   H (  8)   H (  9)   H ( 10)   H ( 11)
   H (  8)  2.473784
   H (  9)  4.285974  2.475219
   H ( 10)  4.950488  4.288022  2.475887
   H ( 11)  4.287357  4.951501  4.288942  2.477258
   H ( 12)  2.472759  4.285859  4.951326  4.290568  2.478453

 Job number = 2, Threshold = 1.00E-08
Integral type ranges set in mkLRange.C for JobNum: 2  <1-21|1-21>
Symmetry turned off temporarily
 Using the largest function pair in Schwarz integrals
Total number of integrals generated =          233997
Symmetry turned back on
 A cutoff of  1.0D-08 yielded   2055 shell pairs
 There are     14694 function pairs (     15765 Cartesian)
 Job number = 11, Threshold = 1.00E-08
Integral type ranges set in mkLRange.C for JobNum: 11  <1-21|22-22>
Total number of integrals generated =          189180
 Smallest overlap matrix eigenvalue = 1.07E-06

 Q-Chem warning in module /usr/local/qchem/stvman/mkSTV.C, line 295:

 Overlap eigenvalue is smaller than square root of threshold

 Multipole matrices computed through 2nd order

 Scale SEOQF with 1.000000e-01/1.000000e-01/1.000000e-01

 Standard Electronic Orientation quadrupole field applied
 Nucleus-field energy     =     0.0000000057 hartrees
 ENuRep (before)= 203.6695344115
 ENucField = 0.0000000057
 ENuRep (after) = 203.6695344172
 Guess from superposition of atomic densities
 Warning:  Energy on first SCF cycle will be non-variational
 SAD guess density has 42.000000 electrons

 ==================================================
    GEN_SCFMAN: A general SCF calculation manager  
                                                   
    Authors:                                       
        -- Eric Jon Sundstrom 2008-2014            
        -- Paul Horn 2010-2015                     
        -- Yuezhi Mao 2012-                        
        -- Dmitri Zuev 2014                        
        -- Alec White 2015-                        
        -- David Stuck 2015                        
        -- Shaama M.S. 2015                        
        -- Shane Yost 2015-                         
        -- Joonho Lee 2016-                        
        -- David Small 2016-                       
        -- Daniel Levine 2016-                     
        -- Susi Lehtola 2017-                      
        -- Hugh Burton 2017-                       
 ==================================================
 Hartree-Fock
Finding J and K together
 Job number = 22, Threshold = 1.00E-08
Integral type ranges set in mkLRange.C for JobNum: 22  <1-21|1-21>
 MakeJK  time:  CPU       3.49 s  wall       3.58 s
 HF Exchange:              -34.15010539558426
 One-Electron:             -709.29693883757113
 Total Coulomb:            306.52597614941374
 Nuclear repulsion:        203.66953441718104
 A restricted SCF calculation will be
 performed using DIIS
 SCF converges when DIIS error is below 1.0e-05
 ---------------------------------------
  Cycle       Energy         DIIS error
 ---------------------------------------
Finding J and K together
 Job number = 22, Threshold = 1.00E-08
Integral type ranges set in mkLRange.C for JobNum: 22  <1-21|1-21>
 MakeJK  time:  CPU      13.83 s  wall      14.38 s
 HF Exchange:              -33.16686828815714
 One-Electron:             -714.10272889110638
 Total Coulomb:            312.90794481546402
 Nuclear repulsion:        203.66953441718104
    1    -233.2515336666      5.18e-02  
Finding J and K together
 Job number = 22, Threshold = 1.00E-08
Integral type ranges set in mkLRange.C for JobNum: 22  <1-21|1-21>
 MakeJK  time:  CPU      10.50 s  wall      10.72 s
 HF Exchange:              -33.21116768787630
 One-Electron:             -713.30949594572041
 Total Coulomb:            312.09978572031014
 Nuclear repulsion:        203.66953441718104
    2    -230.6921179466      3.32e-03  
Finding J and K together
 Job number = 22, Threshold = 1.00E-08
Integral type ranges set in mkLRange.C for JobNum: 22  <1-21|1-21>
 MakeJK  time:  CPU      11.62 s  wall      11.67 s
 HF Exchange:              -33.26644996358939
 One-Electron:             -713.95468008807904
 Total Coulomb:            312.79580048555039
 Nuclear repulsion:        203.66953441718104
    3    -230.7513434961      9.06e-04  
Finding J and K together
 Job number = 22, Threshold = 1.00E-08
Integral type ranges set in mkLRange.C for JobNum: 22  <1-21|1-21>
 MakeJK  time:  CPU      13.04 s  wall      13.09 s
 HF Exchange:              -33.25236497284275
 One-Electron:             -713.66420153917625
 Total Coulomb:            312.49073682264168
 Nuclear repulsion:        203.66953441718104
    4    -230.7557951489      3.48e-04  
Finding J and K together
 Job number = 22, Threshold = 1.00E-08
Integral type ranges set in mkLRange.C for JobNum: 22  <1-21|1-21>
 MakeJK  time:  CPU      14.36 s  wall      14.60 s
 HF Exchange:              -33.25341300765260
 One-Electron:             -713.67613078450108
 Total Coulomb:            312.50370345843709
 Nuclear repulsion:        203.66953441718104
    5    -230.7562952722      3.45e-05  
    6    -230.7563059165      6.56e-06  Convergence criterion met
 ---------------------------------------
 SCF time:   CPU 67.60s  wall 69.00s 
 Total energy in the final basis set =     -230.7563059165
 HF Exchange:              -33.25341300765260
 One-Electron:             -713.67613078450108
 Total Coulomb:            312.50370345843709
 Nuclear repulsion:        203.66953441718104
Wall  1 = 69
Clock 1 = 67.73401641845703
 ==================================================
                  Done GEN_SCFMAN                  
 ==================================================

Symmetry turned off temporarily

 --------------------------------------------------------------

                    Orbital Energies (a.u.)
 --------------------------------------------------------------

 Alpha MOs
 -- Occupied --
-11.238 -11.238 -11.238 -11.237 -11.237 -11.236  -1.153  -1.017
 -1.017  -0.826  -0.826  -0.712  -0.645  -0.621  -0.590  -0.590
 -0.502  -0.496  -0.496  -0.337  -0.337
 -- Virtual --
  0.042   0.049   0.049   0.066   0.066   0.088   0.109   0.109
  0.129   0.153   0.153   0.158   0.163   0.181   0.181   0.183
  0.183   0.193   0.209   0.212   0.212   0.216   0.216   0.218
  0.228   0.228   0.250   0.250   0.289   0.289   0.303   0.333
  0.335   0.369   0.409   0.409   0.430   0.430   0.440   0.498
  0.499   0.509   0.509   0.604   0.610   0.715   0.723   0.723
  0.729   0.751   0.751   0.751   0.758   0.758   0.797   0.820
  0.820   0.886   0.940   0.940   0.952   0.952   0.976   1.015
  1.016   1.017   1.059   1.059   1.107   1.122   1.122   1.131
  1.171   1.218   1.219   1.249   1.324   1.324   1.391   1.392
  1.524   1.557   1.711   1.786   1.787   1.796   1.826   1.845
  1.846   1.908   1.908   1.933   1.934   1.992   2.056   2.056
  2.104   2.104   2.131   2.234   2.237   2.242   2.248   2.249
  2.298   2.347   2.347   2.380   2.380   2.640   2.663   2.744
  2.744   2.746   2.817   2.817   2.963   2.963   2.988   2.995
  3.022   3.022   3.045   3.045   3.058   3.088   3.192   3.192
  3.267   3.293   3.294   3.330   3.331   3.482   3.549   3.776
  3.777   3.907   3.908   3.922   4.082   4.410   4.410   4.500
  4.576   4.576   5.279  24.752  25.138  25.139  25.260  25.261
 25.372
 --------------------------------------------------------------

          Ground-State Mulliken Net Atomic Charges

     Atom                 Charge (a.u.)
  ----------------------------------------
      1 C                    -0.184298
      2 C                    -0.198045
      3 C                    -0.188027
      4 C                    -0.196634
      5 C                    -0.190016
      6 C                    -0.198264
      7 H                     0.192508
      8 H                     0.192128
      9 H                     0.192609
     10 H                     0.192860
     11 H                     0.192688
     12 H                     0.192493
  ----------------------------------------
  Sum of atomic charges =    -0.000000

 -----------------------------------------------------------------
                    Cartesian Multipole Moments
 -----------------------------------------------------------------
    Charge (ESU x 10^10)
                -0.0000
    Dipole Moment (Debye)
         X      -0.0008      Y      -0.0030      Z      -0.0080
       Tot       0.0086
    Quadrupole Moments (Debye-Ang)
        XX     -31.9184     XY      -0.0046     YY     -31.9214
        XZ       0.0186     YZ       0.0574     ZZ     -41.3066
    Octopole Moments (Debye-Ang^2)
       XXX       0.0028    XXY      -0.0263    XYY      -0.0065
       YYY       0.0041    XXZ      -0.0114    XYZ       0.0351
       YYZ      -0.0628    XZZ      -0.0042    YZZ      -0.0114
       ZZZ      -0.0148
    Hexadecapole Moments (Debye-Ang^3)
      XXXX    -270.5139   XXXY      -0.0402   XXYY     -90.1206
      XYYY      -0.0050   YYYY    -270.4024   XXXZ       0.1117
      XXYZ       0.1363   XYYZ       0.0504   YYYZ       0.3647
      XXZZ     -66.0781   XYZZ      -0.0014   YYZZ     -66.0591
      XZZZ       0.0286   YZZZ       0.0888   ZZZZ     -52.1577
 -----------------------------------------------------------------
 Mayer SCF Bond Order, atomic valence on the diagonal:

            1           2           3           4           5           6
    1   4.4246360   1.8286086  -0.1019121   0.0497854  -0.1005972   1.8279710
    2   1.8286086   4.4340923   1.8285317  -0.0934591   0.0468531  -0.0913105
    3  -0.1019121   1.8285317   4.4289239   1.8323841  -0.0995290   0.0478472
    4   0.0497854  -0.0934591   1.8323841   4.4404661   1.8308532  -0.0933288
    5  -0.1005972   0.0468531  -0.0995290   1.8308532   4.4295011   1.8294735
    6   1.8279710  -0.0913105   0.0478472  -0.0933288   1.8294735   4.4351786
    7   0.7803766   0.0898769  -0.0262121   0.0099148  -0.0260934   0.0896769
    8   0.0912294   0.7788471   0.0916384  -0.0266250   0.0102899  -0.0266086
    9  -0.0262408   0.0901980   0.7796214   0.0903992  -0.0261125   0.0098892
   10   0.0105737  -0.0271283   0.0923670   0.7768418   0.0925074  -0.0270483
   11  -0.0260685   0.0098410  -0.0261489   0.0903047   0.7796741   0.0901584
   12   0.0909099  -0.0267661   0.0103362  -0.0266041   0.0921819   0.7784585
            7           8           9          10          11          12
    1   0.7803766   0.0912294  -0.0262408   0.0105737  -0.0260685   0.0909099
    2   0.0898769   0.7788471   0.0901980  -0.0271283   0.0098410  -0.0267661
    3  -0.0262121   0.0916384   0.7796214   0.0923670  -0.0261489   0.0103362
    4   0.0099148  -0.0266250   0.0903992   0.7768418   0.0903047  -0.0266041
    5  -0.0260934   0.0102899  -0.0261125   0.0925074   0.7796741   0.0921819
    6   0.0896769  -0.0266086   0.0098892  -0.0270483   0.0901584   0.7784585
    7   0.9403013   0.0107608   0.0006174  -0.0000005   0.0006213   0.0107626
    8   0.0107608   0.9415010   0.0107716   0.0005987  -0.0000013   0.0006000
    9   0.0006174   0.0107716   0.9405971   0.0108365   0.0006172  -0.0000001
   10  -0.0000005   0.0005987   0.0108365   0.9410157   0.0108699   0.0005978
   11   0.0006213  -0.0000013   0.0006172   0.0108699   0.9406132   0.0107454
   12   0.0107626   0.0006000  -0.0000001   0.0005978   0.0107454   0.9412220


 JobOver = TRUE
Archival summary:
1\1\qciep03\SP\HF\BasisUnspecified\66\jcartus\ThuJan2517:20:552018ThuJan2517:20:552018\0\\#,HF,BasisUnspecified,\\0,1\C\H,1,1.08128\C,1,1.39352,2,119.961\H,3,1.08113,1,119.981,2,-0.0864128,0\C,3,1.39344,1,119.962,2,-179.245,0\H,5,1.08169,3,119.971,1,179.657,0\C,1,1.39403,2,119.947,3,-179.759,0\H,7,1.08124,1,119.897,2,-0.295825,0\C,7,1.39395,1,119.922,2,179.248,0\H,9,1.08236,7,119.984,1,179.584,0\C,5,1.39409,3,120.036,1,-0.150146,0\H,11,1.08204,5,120.002,3,-179.702,0\\HF=-230.756306\\@

 Total job time:  69.50s(wall), 68.24s(cpu) 
 Thu Jan 25 17:20:55 2018

        *************************************************************
        *                                                           *
        *  Thank you very much for using Q-Chem.  Have a nice day.  *
        *                                                           *
        *************************************************************


*** MISSION COMPLETED -- STARFLEET OUT ***

0 sent ACK to 0 
now end server 0 ... 
