Process 0 of 1 is on qciep03 - thread support 0
initial socket setup ...start
initial socket setup ...done 
now start server 0 ... 
qciep03.tugraz.at 127.0.1
Q-Chem Developer Version! Running on 127.0.1.*
                  Welcome to Q-Chem
     A Quantum Leap Into The Future Of Chemistry


 Q-Chem 5.0, Q-Chem, Inc., Pleasanton, CA (2017)

 Yihan Shao,  Zhengting Gan,  E. Epifanovsky,  A. T. B. Gilbert,  M. Wormit,  
 J. Kussmann,  A. W. Lange,  A. Behn,  Jia Deng,  Xintian Feng,  D. Ghosh,  
 M. Goldey,  P. R. Horn,  L. D. Jacobson,  I. Kaliman,  T. Kus,  A. Landau,  
 Jie Liu,  E. I. Proynov,  R. M. Richard,  R. P. Steele,  E. J. Sundstrom,  
 H. L. Woodcock III,  P. M. Zimmerman,  D. Zuev,  B. Albrecht,  E. Alguire,  
 S. A. Baeppler,  D. Barton,  Z. Benda,  Y. A. Bernard,  E. J. Berquist,  
 K. B. Bravaya,  H. Burton,  D. Casanova,  Chun-Min Chang,  Yunqing Chen,  
 A. Chien,  K. D. Closser,  M. P. Coons,  S. Dasgupta,  A. L. Dempwolff,  
 M. Diedenhofen,  Hainam Do,  R. G. Edgar,  Po-Tung Fang,  S. Fatehi,  
 Qingguo Feng,  J. Fosso-Tande,  Qinghui Ge,  A. Ghysels,  G. Gidofalvi,  
 J. Gomes,  J. Gonthier,  A. Gunina,  M. W. D. Hanson-Heine,  
 P. H. P. Harbach,  A. W. Hauser,  J. E. Herr,  E. G. Hohenstein,  
 Z. C. Holden,  Kerwin Hui,  T.-C. Jagau,  Hyunjun Ji,  B. Kaduk,  
 K. Khistyaev,  Jaehoon Kim,  P. Klunzinger,  K. Koh,  D. Kosenkov,  
 L. Koulias,  T. Kowalczyk,  C. M. Krauter,  A. Kunitsa,  Ka Un Lao,  
 A. Laurent,  K. V. Lawler,  Joonho Lee,  D. Lefrancois,  S. Lehtola,  
 D. S. Levine,  Yi-Pei Li,  You-Sheng Lin,  Fenglai Liu,  E. Livshits,  
 A. Luenser,  P. Manohar,  E. Mansoor,  S. F. Manzer,  Shan-Ping Mao,  
 Yuezhi Mao,  N. Mardirossian,  A. V. Marenich,  T. Markovich,  
 L. A. Martinez-Martinez,  S. A. Maurer,  N. J. Mayhall,  S. C. McKenzie,  
 J.-M. Mewes,  A. F. Morrison,  J. W. Mullinax,  K. Nanda,  
 T. S. Nguyen-Beck,  R. Olivares-Amaya,  J. A. Parkhill,  T. M. Perrine,  
 F. Plasser,  S. Prager,  A. Prociuk,  E. Ramos,  D. R. Rehn,  F. Rob,  
 M. Schneider,  N. Sergueev,  S. M. Sharada,  S. Sharma,  D. W. Small,  
 T. Stauch,  T. Stein,  Yu-Chuan Su,  A. J. W. Thom,  A. Tkatchenko,  
 T. Tsuchimochi,  L. Vogt,  O. Vydrov,  M. A. Watson,  J. Wenzel,  
 M. de Wergifosse,  T. A. Wesolowski,  A. White,  J. Witte,  A. Yamada,  
 Jun Yang,  K. Yao,  S. Yeganeh,  S. R. Yost,  Zhi-Qiang You,  A. Zech,  
 Igor Ying Zhang,  Xing Zhang,  Yan Zhao,  Ying Zhu,  B. R. Brooks,  
 G. K. L. Chan,  C. J. Cramer,  M. S. Gordon,  W. J. Hehre,  A. Klamt,  
 M. W. Schmidt,  C. D. Sherrill,  D. G. Truhlar,  A. Aspuru-Guzik,  R. Baer,  
 A. T. Bell,  N. A. Besley,  Jeng-Da Chai,  R. A. DiStasio Jr.,  A. Dreuw,  
 B. D. Dunietz,  T. R. Furlani,  Chao-Ping Hsu,  Yousung Jung,  Jing Kong,  
 D. S. Lambrecht,  WanZhen Liang,  C. Ochsenfeld,  V. A. Rassolov,  
 L. V. Slipchenko,  J. E. Subotnik,  T. Van Voorhis,  J. M. Herbert,  
 A. I. Krylov,  P. M. W. Gill,  M. Head-Gordon

 Contributors to earlier versions of Q-Chem not listed above: 
 R. D. Adamson,  B. Austin,  J. Baker,  G. J. O. Beran,  K. Brandhorst,  
 S. T. Brown,  E. F. C. Byrd,  A. K. Chakraborty,  C.-L. Cheng,  
 Siu Hung Chien,  D. M. Chipman,  D. L. Crittenden,  H. Dachsel,  
 R. J. Doerksen,  A. D. Dutoi,  L. Fusti-Molnar,  W. A. Goddard III,  
 A. Golubeva-Zadorozhnaya,  S. R. Gwaltney,  G. Hawkins,  A. Heyden,  
 S. Hirata,  G. Kedziora,  F. J. Keil,  C. Kelley,  Jihan Kim,  R. A. King,  
 R. Z. Khaliullin,  P. P. Korambath,  W. Kurlancheek,  A. M. Lee,  M. S. Lee,  
 S. V. Levchenko,  Ching Yeh Lin,  D. Liotard,  R. C. Lochan,  I. Lotan,  
 P. E. Maslen,  N. Nair,  D. P. O'Neill,  D. Neuhauser,  E. Neuscamman,  
 C. M. Oana,  R. Olson,  B. Peters,  R. Peverati,  P. A. Pieniazek,  
 Y. M. Rhee,  J. Ritchie,  M. A. Rohrdanz,  E. Rosta,  N. J. Russ,  
 H. F. Schaefer III,  N. E. Schultz,  N. Shenvi,  A. C. Simmonett,  A. Sodt,  
 D. Stuck,  K. S. Thanthiriwatte,  V. Vanovschi,  Tao Wang,  A. Warshel,  
 C. F. Williams,  Q. Wu,  X. Xu,  W. Zhang

 Please cite Q-Chem as follows:
 Y. Shao et al., Mol. Phys. 113, 184-215 (2015)
 DOI: 10.1080/00268976.2014.952696

 Q-Chem 5.0.2 for Intel X86 EM64T Linux

 Parts of Q-Chem use Armadillo 5.200.1 (Boston Tea Smuggler).
 http://arma.sourceforge.net/

 Q-Chem begins on Mon Jun 18 11:53:30 2018  


Host: 0

     Scratch files written to /home/jcartus/scratch/Butadien_5.mol.dir//
 Using version located at /usr/local/qchem/bin/qchem

 Parallel job on  1  processors
Symmetry disabled for AIMD jobs.

Total Memory Limit in MB = 2000
Mega-Array Size in MB = 192

Checking the input file for inconsistencies... 	...done.
Finally everything over in PARseQInput

--------------------------------------------------------------
User input:
--------------------------------------------------------------
$rem
AIMD_STEPS                    400
FOCK_EXTRAP_POINTS            12
MAX_SCF_CYCLES                100
BASIS                         sto-3g
AIMD_INIT_VELOC               thermal
FOCK_EXTRAP_ORDER             6
AIMD_TEMP                     400
AIMD_METHOD                   bomd
TIME_STEP                     20
METHOD                        hf
JOBTYPE                       aimd
$end

$molecule
0 1
C    3.77082    1.49067    0.62649
C    2.96133    1.06114    -0.42503
H    4.13335    1.82765    1.73306
H    5.14226    0.81116    -0.06461
C    1.57925    1.50778    0.17247
C    0.57803    0.94527    -0.46878
H    1.37748    0.18272    -1.50833
H    -0.52007    1.54080    -0.13851
H    3.35965    -0.04210    -1.62480
H    1.38594    2.52739    1.08732
$end


--------------------------------------------------------------
 ----------------------------------------------------------------
             Standard Nuclear Orientation (Angstroms)
    I     Atom           X                Y                Z
 ----------------------------------------------------------------
    1      C       3.7708200000     1.4906700000     0.6264900000
    2      C       2.9613300000     1.0611400000    -0.4250300000
    3      H       4.1333500000     1.8276500000     1.7330600000
    4      H       5.1422600000     0.8111600000    -0.0646100000
    5      C       1.5792500000     1.5077800000     0.1724700000
    6      C       0.5780300000     0.9452700000    -0.4687800000
    7      H       1.3774800000     0.1827200000    -1.5083300000
    8      H      -0.5200700000     1.5408000000    -0.1385100000
    9      H       3.3596500000    -0.0421000000    -1.6248000000
   10      H       1.3859400000     2.5273900000     1.0873200000
 ----------------------------------------------------------------
 Nuclear Repulsion Energy =    98.0046300228 hartrees
 There are       15 alpha and       15 beta electrons
 Requested basis set is STO-3G
 There are 14 shells and 26 basis functions

 Total QAlloc Memory Limit   2000 MB
 Mega-Array Size       188 MB
 MEM_STATIC part       192 MB

finished with qalloc call

                       Distance Matrix (Angstroms)
             C (  1)   C (  2)   H (  3)   H (  4)   C (  5)   C (  6)
   C (  2)  1.394799
   H (  3)  1.212221  2.572649
   H (  4)  1.679345  2.224601  2.298427
   C (  5)  2.238170  1.570554  3.010180  3.638204
   C (  6)  3.419208  2.386516  4.273990  4.584052  1.315318
   H (  7)  3.463563  2.110389  4.561494  4.080788  2.149787  1.516993
   H (  8)  4.358839  3.525949  5.023880  5.709625  2.122485  1.292114
   H (  9)  2.754406  1.677869  3.920434  2.517925  2.966839  3.169967
   H ( 10)  2.640986  2.630389  2.907727  4.287462  1.383446  2.361624
             H (  7)   H (  8)   H (  9)
   H (  8)  2.705824
   H (  9)  1.998276  4.445993
   H ( 10)  3.497849  2.471618  4.225329

 Job number = 2, Threshold = 1.00E-11
Integral type ranges set in mkLRange.C for JobNum: 2  <1-6|1-6>
Symmetry turned off temporarily
 Using the largest function pair in Schwarz integrals
Total number of integrals generated =            3252
Symmetry turned back on
 A cutoff of  1.0D-11 yielded    102 shell pairs
 There are       372 function pairs
 Job number = 11, Threshold = 1.00E-11
Integral type ranges set in mkLRange.C for JobNum: 11  <1-6|7-7>
Total number of integrals generated =            3720
 Smallest overlap matrix eigenvalue = 1.86E-01
 Multipole matrices computed through 2nd order

 Scale SEOQF with 1.000000e-01/1.000000e-01/1.000000e-01

 Standard Electronic Orientation quadrupole field applied
 Nucleus-field energy     =     0.0000000098 hartrees
 ENuRep (before)= 98.0046300228
 ENucField = 0.0000000098
 ENuRep (after) = 98.0046300326
 Guess from superposition of atomic densities
 Warning:  Energy on first SCF cycle will be non-variational
 SAD guess density has 30.000000 electrons

 ==================================================
    GEN_SCFMAN: A general SCF calculation manager  
                                                   
    Authors:                                       
        -- Eric Jon Sundstrom 2008-2014            
        -- Paul Horn 2010-2015                     
        -- Yuezhi Mao 2012-                        
        -- Dmitri Zuev 2014                        
        -- Alec White 2015-                        
        -- David Stuck 2015                        
        -- Shaama M.S. 2015                        
        -- Shane Yost 2015-                         
        -- Joonho Lee 2016-                        
        -- David Small 2016-                       
        -- Daniel Levine 2016-                     
        -- Susi Lehtola 2017-                      
        -- Hugh Burton 2017-                       
 ==================================================
 Hartree-Fock
Finding J and K together
 Job number = 22, Threshold = 1.00E-11
Integral type ranges set in mkLRange.C for JobNum: 22  <1-6|1-6>
 MakeJK  time:  CPU       0.13 s  wall       0.13 s
 A restricted SCF calculation will be
 performed using DIIS
 SCF converges when DIIS error is below 1.0e-08
 ---------------------------------------
  Cycle       Energy         DIIS error
 ---------------------------------------
Finding J and K together
 Job number = 22, Threshold = 1.00E-11
Integral type ranges set in mkLRange.C for JobNum: 22  <1-6|1-6>
 MakeJK  time:  CPU       0.16 s  wall       0.17 s
    1    -151.2628438406      1.70e-01  
Finding J and K together
 Job number = 22, Threshold = 1.00E-11
Integral type ranges set in mkLRange.C for JobNum: 22  <1-6|1-6>
 MakeJK  time:  CPU       0.16 s  wall       0.17 s
    2    -152.3380318110      1.60e-02  
Finding J and K together
 Job number = 22, Threshold = 1.00E-11
Integral type ranges set in mkLRange.C for JobNum: 22  <1-6|1-6>
 MakeJK  time:  CPU       0.17 s  wall       0.17 s
    3    -152.3896713917      7.33e-03  
Finding J and K together
 Job number = 22, Threshold = 1.00E-11
Integral type ranges set in mkLRange.C for JobNum: 22  <1-6|1-6>
 MakeJK  time:  CPU       0.17 s  wall       0.17 s
    4    -152.3962380529      3.55e-03  
Finding J and K together
 Job number = 22, Threshold = 1.00E-11
Integral type ranges set in mkLRange.C for JobNum: 22  <1-6|1-6>
 MakeJK  time:  CPU       0.17 s  wall       0.17 s
    5    -152.3980029805      6.43e-04  
Finding J and K together
 Job number = 22, Threshold = 1.00E-11
Integral type ranges set in mkLRange.C for JobNum: 22  <1-6|1-6>
 MakeJK  time:  CPU       0.17 s  wall       0.17 s
    6    -152.3980621261      1.67e-04  
Finding J and K together
 Job number = 22, Threshold = 1.00E-11
Integral type ranges set in mkLRange.C for JobNum: 22  <1-6|1-6>
 MakeJK  time:  CPU       0.17 s  wall       0.17 s
    7    -152.3980676237      7.23e-05  
Finding J and K together
 Job number = 22, Threshold = 1.00E-11
Integral type ranges set in mkLRange.C for JobNum: 22  <1-6|1-6>
 MakeJK  time:  CPU       0.17 s  wall       0.17 s
    8    -152.3980687741      2.08e-05  
Finding J and K together
 Job number = 22, Threshold = 1.00E-11
Integral type ranges set in mkLRange.C for JobNum: 22  <1-6|1-6>
 MakeJK  time:  CPU       0.13 s  wall       0.15 s
    9    -152.3980689422      5.39e-06  
Finding J and K together
 Job number = 22, Threshold = 1.00E-11
Integral type ranges set in mkLRange.C for JobNum: 22  <1-6|1-6>
 MakeJK  time:  CPU       0.12 s  wall       0.12 s
   10    -152.3980689557      1.30e-06  
Finding J and K together
 Job number = 22, Threshold = 1.00E-11
Integral type ranges set in mkLRange.C for JobNum: 22  <1-6|1-6>
 MakeJK  time:  CPU       0.11 s  wall       0.11 s
   11    -152.3980689565      4.37e-07  
Finding J and K together
 Job number = 22, Threshold = 1.00E-11
Integral type ranges set in mkLRange.C for JobNum: 22  <1-6|1-6>
 MakeJK  time:  CPU       0.14 s  wall       0.14 s
   12    -152.3980689566      1.61e-07  
Finding J and K together
 Job number = 22, Threshold = 1.00E-11
Integral type ranges set in mkLRange.C for JobNum: 22  <1-6|1-6>
 MakeJK  time:  CPU       0.12 s  wall       0.12 s
   13    -152.3980689566      3.44e-08  
   14    -152.3980689566      8.21e-09  Convergence criterion met
 ---------------------------------------
 SCF time:   CPU 2.11s  wall 2.00s 
 Total energy in the final basis set =     -152.3980689566
Wall  1 = 2
Clock 1 = 2.1076231003
 ==================================================
                  Done GEN_SCFMAN                  
 ==================================================

Symmetry turned off temporarily

 --------------------------------------------------------------

                    Orbital Energies (a.u.)
 --------------------------------------------------------------

 Alpha MOs
 -- Occupied --
-11.038 -11.019 -11.012 -10.994  -0.998  -0.887  -0.664  -0.592
 -0.542  -0.440  -0.422  -0.367  -0.356  -0.252  -0.241
 -- Virtual --
  0.201   0.277   0.318   0.370   0.383   0.450   0.488   0.587
  0.793   0.997   1.055
 --------------------------------------------------------------

          Ground-State Mulliken Net Atomic Charges

     Atom                 Charge (a.u.)
  ----------------------------------------
      1 C                    -0.050958
      2 C                    -0.008128
      3 H                     0.110760
      4 H                    -0.124420
      5 C                    -0.045555
      6 C                    -0.096743
      7 H                     0.053828
      8 H                     0.048072
      9 H                     0.078386
     10 H                     0.034759
  ----------------------------------------
  Sum of atomic charges =     0.000000

 -----------------------------------------------------------------
                    Cartesian Multipole Moments
 -----------------------------------------------------------------
    Charge (ESU x 10^10)
                -0.0000
    Dipole Moment (Debye)
         X      -0.3353      Y       0.2051      Z       0.2985
       Tot       0.4935
    Quadrupole Moments (Debye-Ang)
        XX     -28.4127     XY      -0.9929     YY     -22.5848
        XZ       0.6757     YZ       3.6792     ZZ     -20.5005
    Octopole Moments (Debye-Ang^2)
       XXX    -201.1699    XXY     -34.2507    XYY     -53.8607
       YYY     -84.6377    XXZ       6.1910    XYZ      10.8665
       YYZ       8.3048    XZZ     -41.0895    YZZ     -26.4248
       ZZZ       3.6566
    Hexadecapole Moments (Debye-Ang^3)
      XXXX   -1289.7738   XXXY    -237.9969   XXYY    -217.3131
      XYYY    -200.8930   YYYY    -257.2760   XXXZ      10.6448
      XXYZ      34.6191   XYYZ      14.1860   YYYZ      -0.1335
      XXZZ    -138.9153   XYZZ     -54.7123   YYZZ     -49.9999
      XZZZ     -12.0082   YZZZ      -5.4127   ZZZZ     -70.2574
 -----------------------------------------------------------------
drvman_main.C: 73: calling DrvMan  Calculating analytic gradient of the SCF energy
drvman.C : 218: Calculating analytic gradient of the SCF energy
drvman.C: 244: calling SCF_Grad for normal SCF gradient
 Job number = 111, Threshold = 1.00E-11
Integral type ranges set in mkLRange.C for JobNum: 11  <1-6|7-7>
Finding J and K together
 ML is being used
 Job number = 122, Threshold = 1.00E-11
Integral type ranges set in mkLRange.C for JobNum: 22  <1-6|1-6>
Total number of integrals generated =           70452
 MakeJK  time:  CPU       0.34 s  wall       0.35 s
 Gradient of SCF Energy
            1           2           3           4           5           6
    1  -0.1994059  -0.0422911   0.0511723   0.0957656   0.0236966   0.0088939
    2   0.1280743  -0.0197285   0.0107552  -0.0658853  -0.0543573  -0.0201204
    3   0.1208496  -0.1161181   0.0808084  -0.0787283   0.0034456   0.0395700
            7           8           9          10
    1   0.1250135  -0.0736275   0.0437485  -0.0329659
    2  -0.0584948   0.0807573  -0.1070510   0.1060504
    3  -0.0841056   0.0523007  -0.1069635   0.0889413
 Max gradient component =       1.994E-01
 RMS gradient           =       8.304E-02
drvman.C: 248: out of SCF_Grad for normal SCF gradient
 Gradient time:  CPU 0.36 s  wall 0.36 s
 ------------------------------------------------------------------------------
                     drvman        : Timing summary (seconds)
 ------------------------------------------------------------------------------
     job step          cpu (% of tot)      sys (% of tot)     wall (% of tot)
 ------------------------------------------------------------------------------
 ------------------------------------------------------------------------------
   Grand Totals     0.3560E+00          0.0000E+00          0.3609E+00
 ------------------------------------------------------------------------------
drvman_main.C: 77: out of DrvMan =======================================================
            AB INITIO MOLECULAR DYNAMICS
=======================================================
Directory /home/jcartus/scratch/Butadien_5.mol.dir/AIMD already exists
AIMD will take 400 BOMD steps Velocity Verlet integration
Time step = 20.00000 a.u. ( = 0.48378 fs)
Total simulation time requested = 193.511 fs
Integral threshold = 10**(-11)
SCF convergence threshold = 10**(-8)
Generating viewable xyz trajectory,
 file (in Angstroms) at AIMD/View.xyz
Choosing nuclear velocities from Maxwell-Boltzmann
Velocities sampled from Maxwell-Boltzmann at T = 400.0 K
sqrt(kT/m) and (vx,vy,vz) for each atom:
  1   2.4064e-04  -1.44e-04   3.45e-04  -2.66e-04 
  2   2.4064e-04   1.28e-05   1.43e-04   8.08e-05 
  3   8.3036e-04   1.12e-03   8.92e-04  -7.88e-04 
  4   8.3036e-04   1.36e-04  -9.00e-04   5.04e-04 
  5   2.4064e-04  -6.52e-05   1.43e-04  -5.34e-05 
  6   2.4064e-04   5.31e-04  -3.50e-04   5.45e-04 
  7   8.3036e-04   5.84e-04  -6.34e-04   1.85e-04 
  8   8.3036e-04  -6.01e-04  -6.09e-04  -3.87e-04 
  9   8.3036e-04   5.62e-04   5.83e-05   7.81e-04 
 10   8.3036e-04   2.91e-04   1.16e-03  -1.71e-04 
T(nuclear) = 0.01774031 a.u.
v(c.o.m.) = (  1.1340e-04,   6.1702e-05,   7.0259e-05)
T(c.o.m.) = 1.06416e-03 a.u.
kT/2 = 0.000633 a.u.
Tx   = 0.005543 a.u.
Ty   = 0.006516 a.u.
Tz   = 0.005681 a.u.
Mean velocities (a.u.):   2.4259e-04   2.4948e-05   4.2978e-05
Removing c.o.m. velocity
T(nuclear) = 0.01819670 a.u.
v(c.o.m.) = ( -5.6344e-21,  -1.8030e-20,   1.1269e-20)
T(c.o.m.) = 2.38333e-35 a.u.
kT   = 0.001267 a.u. = 0.79 kcal/mol
Tx   = 0.004985 a.u. = 3.13 kcal/mol
Ty   = 0.007002 a.u. = 4.39 kcal/mol
Tz   = 0.006210 a.u. = 3.90 kcal/mol
Initial velocities in m/s
  1     -4.2624e+02      6.9404e+02     -6.5132e+02 
  2     -8.3788e+01      2.5196e+02      1.0764e+02 
  3      1.1189e+03      1.2270e+03     -2.5482e+03 
  4     -1.0324e+03     -2.6918e+03      2.7858e+02 
  5     -2.5439e+02      2.5102e+02     -1.8611e+02 
  6      1.0507e+03     -8.2654e+02      1.1224e+03 
  7     -5.3193e+01     -2.1119e+03     -4.2053e+02 
  8     -2.6457e+03     -2.0569e+03     -1.6699e+03 
  9     -1.0152e+02     -5.9628e+02      8.8323e+02 
 10     -6.9459e+02      1.8186e+03     -1.1981e+03 
----------------------------------------------------------------------------
       Nuclear coordinates (Angst) and velocities (a.u.)
----------------------------------------------------------------------------
             x        y        z            v_x         v_y        v_z
----------------------------------------------------------------------------
1      C    3.7708   1.4907   0.6265    -1.9483e-04   3.1725e-04  -2.9772e-04
2      C    2.9613   1.0611  -0.4250    -3.8300e-05   1.1517e-04   4.9201e-05
3      H    4.1334   1.8276   1.7331     5.1147e-04   5.6086e-04  -1.1648e-03
4      H    5.1423   0.8112  -0.0646    -4.7189e-04  -1.2304e-03   1.2734e-04
5      C    1.5793   1.5078   0.1725    -1.1628e-04   1.1474e-04  -8.5073e-05
6      C    0.5780   0.9453  -0.4688     4.8026e-04  -3.7781e-04   5.1306e-04
7      H    1.3775   0.1827  -1.5083    -2.4315e-05  -9.6534e-04  -1.9223e-04
8      H   -0.5201   1.5408  -0.1385    -1.2093e-03  -9.4020e-04  -7.6333e-04
9      H    3.3596  -0.0421  -1.6248    -4.6403e-05  -2.7256e-04   4.0373e-04
10     H    1.3859   2.5274   1.0873    -3.1750e-04   8.3129e-04  -5.4767e-04
----------------------------------------------------------------------------
Write nuclear velocities every 1 time steps

TIME STEP #1 (t = 0.000 a.u. = 0.00000 fs)
--------------------------------------
 Instantaneous Temperature = 383.1 K
 ----------------------------------------------------------------
             Standard Nuclear Orientation (Angstroms)
    I     Atom           X                Y                Z
 ----------------------------------------------------------------
    1      C       3.7697227373     1.4934079339     0.6227543822
    2      C       2.9611292671     1.0624543748    -0.4239474648
    3      H       4.1358152465     1.8329663500     1.7160774028
    4      H       5.1317488373     0.8019332809    -0.0587269111
    5      C       1.5779046847     1.5092573722     0.1715529585
    6      C       0.5830698647     0.9413687439    -0.4635414454
    7      H       1.3700208679     0.1758730209    -1.5055192577
    8      H      -0.5286276030     1.5261970855    -0.1496016445
    9      H       3.3566386172    -0.0388176530    -1.6143651649
   10      H       1.3844788185     2.5300786369     1.0763999565
 ----------------------------------------------------------------
 Nuclear Repulsion Energy =    98.2041010078 hartrees
 There are       15 alpha and       15 beta electrons

                       Distance Matrix (Angstroms)
             C (  1)   C (  2)   H (  3)   H (  4)   C (  5)   C (  6)
   C (  2)  1.391089
   H (  3)  1.201948  2.559938
   H (  4)  1.672623  2.216494  2.281413
   C (  5)  2.237834  1.570848  3.005537  3.630860
   C (  6)  3.411677  2.381469  4.262357  4.568785  1.309786
   H (  7)  3.467566  2.118360  4.557879  4.078695  2.152603  1.513603
   H (  8)  4.367313  3.531108  5.033080  5.707248  2.130940  1.294779
   H (  9)  2.742819  1.669228  3.899043  2.505572  2.958029  3.158773
   H ( 10)  2.640051  2.625031  2.909468  4.279840  1.377765  2.353226
             H (  7)   H (  8)   H (  9)
   H (  8)  2.695692
   H (  9)  2.001147  4.437352
   H ( 10)  3.494109  2.484116  4.210565

 Applying Cartesian multipole field
    Component          Value
    ---------          -----
     (2,0,0)        1.00000E-11
     (0,2,0)        2.00000E-11
     (0,0,2)       -3.00000E-11
 Nucleus-field energy     =     0.0000000098 hartrees
 ENuRep (before)= 98.2041010078
 ENucField = 0.0000000098
 ENuRep (after) = 98.2041010177
 Job number = 2, Threshold = 1.00E-11
Integral type ranges set in mkLRange.C for JobNum: 2  <1-6|1-6>
Symmetry turned off temporarily
Symmetry turned back on
 Job number = 11, Threshold = 1.00E-11
Integral type ranges set in mkLRange.C for JobNum: 11  <1-6|7-7>
 Smallest overlap matrix eigenvalue = 1.83E-01
 Multipole matrices computed through 2nd order
 Guess from superposition of atomic densities
 Warning:  Energy on first SCF cycle will be non-variational
 SAD guess density has 30.000000 electrons
 SCF convergence criterion is 10**(-8)
 A restricted Hartree-Fock SCF calculation will be
 performed using Pulay DIIS extrapolation
 SCF converges when DIIS error is below 1.0E-08
Finding J and K together
 Job number = 22, Threshold = 1.00E-11
Integral type ranges set in mkLRange.C for JobNum: 22  <1-6|1-6>
 MakeJK  time:  CPU       0.13 s  wall       0.13 s
Fock build time:  0.13 s (CPU) 0.13 s (wall)
DIIS Errors:  Max 1.14E+00 RMS 1.71E-01

Current DIIS subspace size = 1
REM_GRID_RESTART_DIIS = 0

 ---------------------------------------
  Cycle       Energy         DIIS Error
 ---------------------------------------
    1    -151.2912161966      1.71E-01  00000
Finding J and K together
 Job number = 22, Threshold = 1.00E-11
Integral type ranges set in mkLRange.C for JobNum: 22  <1-6|1-6>
 MakeJK  time:  CPU       0.16 s  wall       0.16 s
Fock build time:  0.16 s (CPU) 0.16 s (wall)
DIIS Errors:  Max 1.19E-01 RMS 1.59E-02

Current DIIS subspace size = 2
REM_GRID_RESTART_DIIS = 0

    2    -152.3500672423      1.59E-02  00000
Finding J and K together
 Job number = 22, Threshold = 1.00E-11
Integral type ranges set in mkLRange.C for JobNum: 22  <1-6|1-6>
 MakeJK  time:  CPU       0.16 s  wall       0.17 s
Fock build time:  0.16 s (CPU) 0.17 s (wall)
DIIS Errors:  Max 4.06E-02 RMS 7.17E-03

Current DIIS subspace size = 3
REM_GRID_RESTART_DIIS = 0

    3    -152.4010575034      7.17E-03  00000
Finding J and K together
 Job number = 22, Threshold = 1.00E-11
Integral type ranges set in mkLRange.C for JobNum: 22  <1-6|1-6>
 MakeJK  time:  CPU       0.16 s  wall       0.18 s
Fock build time:  0.16 s (CPU) 0.18 s (wall)
DIIS Errors:  Max 2.25E-02 RMS 3.49E-03

Current DIIS subspace size = 4
REM_GRID_RESTART_DIIS = 0

    4    -152.4073799459      3.49E-03  00000
Finding J and K together
 Job number = 22, Threshold = 1.00E-11
Integral type ranges set in mkLRange.C for JobNum: 22  <1-6|1-6>
 MakeJK  time:  CPU       0.17 s  wall       0.17 s
Fock build time:  0.17 s (CPU) 0.17 s (wall)
DIIS Errors:  Max 3.51E-03 RMS 6.26E-04

Current DIIS subspace size = 5
REM_GRID_RESTART_DIIS = 0

    5    -152.4090734407      6.26E-04  00000
Finding J and K together
 Job number = 22, Threshold = 1.00E-11
Integral type ranges set in mkLRange.C for JobNum: 22  <1-6|1-6>
 MakeJK  time:  CPU       0.17 s  wall       0.17 s
Fock build time:  0.17 s (CPU) 0.17 s (wall)
DIIS Errors:  Max 7.52E-04 RMS 1.61E-04

Current DIIS subspace size = 6
REM_GRID_RESTART_DIIS = 0

    6    -152.4091293665      1.61E-04  00000
Finding J and K together
 Job number = 22, Threshold = 1.00E-11
Integral type ranges set in mkLRange.C for JobNum: 22  <1-6|1-6>
 MakeJK  time:  CPU       0.12 s  wall       0.12 s
Fock build time:  0.12 s (CPU) 0.12 s (wall)
DIIS Errors:  Max 3.83E-04 RMS 6.93E-05

Current DIIS subspace size = 7
REM_GRID_RESTART_DIIS = 0

    7    -152.4091345036      6.93E-05  00000
Finding J and K together
 Job number = 22, Threshold = 1.00E-11
Integral type ranges set in mkLRange.C for JobNum: 22  <1-6|1-6>
 MakeJK  time:  CPU       0.10 s  wall       0.11 s
Fock build time:  0.10 s (CPU) 0.11 s (wall)
DIIS Errors:  Max 8.76E-05 RMS 1.97E-05

Current DIIS subspace size = 8
REM_GRID_RESTART_DIIS = 0

    8    -152.4091355602      1.97E-05  00000
Finding J and K together
 Job number = 22, Threshold = 1.00E-11
Integral type ranges set in mkLRange.C for JobNum: 22  <1-6|1-6>
 MakeJK  time:  CPU       0.10 s  wall       0.10 s
Fock build time:  0.10 s (CPU) 0.10 s (wall)
DIIS Errors:  Max 2.49E-05 RMS 5.01E-06

Current DIIS subspace size = 9
REM_GRID_RESTART_DIIS = 0

    9    -152.4091357111      5.01E-06  00000
Finding J and K together
 Job number = 22, Threshold = 1.00E-11
Integral type ranges set in mkLRange.C for JobNum: 22  <1-6|1-6>
 MakeJK  time:  CPU       0.15 s  wall       0.16 s
Fock build time:  0.15 s (CPU) 0.16 s (wall)
DIIS Errors:  Max 6.83E-06 RMS 1.21E-06

Current DIIS subspace size = 10
REM_GRID_RESTART_DIIS = 0

   10    -152.4091357229      1.21E-06  00000
Finding J and K together
 Job number = 22, Threshold = 1.00E-11
Integral type ranges set in mkLRange.C for JobNum: 22  <1-6|1-6>
 MakeJK  time:  CPU       0.14 s  wall       0.15 s
Fock build time:  0.14 s (CPU) 0.15 s (wall)
DIIS Errors:  Max 2.24E-06 RMS 4.10E-07

Current DIIS subspace size = 11
REM_GRID_RESTART_DIIS = 0

   11    -152.4091357237      4.10E-07  00000
Finding J and K together
 Job number = 22, Threshold = 1.00E-11
Integral type ranges set in mkLRange.C for JobNum: 22  <1-6|1-6>
 MakeJK  time:  CPU       0.12 s  wall       0.12 s
Fock build time:  0.12 s (CPU) 0.12 s (wall)
DIIS Errors:  Max 9.77E-07 RMS 1.51E-07

Current DIIS subspace size = 12
REM_GRID_RESTART_DIIS = 0

   12    -152.4091357238      1.51E-07  00000
Finding J and K together
 Job number = 22, Threshold = 1.00E-11
Integral type ranges set in mkLRange.C for JobNum: 22  <1-6|1-6>
 MakeJK  time:  CPU       0.10 s  wall       0.10 s
Fock build time:  0.10 s (CPU) 0.10 s (wall)
DIIS Errors:  Max 2.10E-07 RMS 3.31E-08

Current DIIS subspace size = 13
REM_GRID_RESTART_DIIS = 0

   13    -152.4091357238      3.31E-08  00000
Finding J and K together
 Job number = 22, Threshold = 1.00E-11
Integral type ranges set in mkLRange.C for JobNum: 22  <1-6|1-6>
 MakeJK  time:  CPU       0.10 s  wall       0.10 s
Fock build time:  0.10 s (CPU) 0.10 s (wall)
DIIS Errors:  Max 4.78E-08 RMS 8.14E-09

Current DIIS subspace size = 14
REM_GRID_RESTART_DIIS = 0

   14    -152.4091357238      8.14E-09  00000 Convergence criterion met
 ---------------------------------------
 SCF time:  CPU 1.92 s  wall 1.96 s
 SCF   energy in the final basis set = -152.40913572
 Total energy in the final basis set = -152.40913572
drvman_main.C: 73: calling DrvMan  Calculating analytic gradient of the SCF energy
drvman.C : 218: Calculating analytic gradient of the SCF energy
drvman.C: 244: calling SCF_Grad for normal SCF gradient
 Job number = 111, Threshold = 1.00E-11
Integral type ranges set in mkLRange.C for JobNum: 11  <1-6|7-7>
Finding J and K together
 ML is being used
 Job number = 122, Threshold = 1.00E-11
Integral type ranges set in mkLRange.C for JobNum: 22  <1-6|1-6>
 MakeJK  time:  CPU       0.41 s  wall       0.45 s
 Gradient of SCF Energy
            1           2           3           4           5           6
    1  -0.2006937  -0.0403230   0.0507118   0.0952237   0.0177032   0.0197732
    2   0.1306237  -0.0188938   0.0094603  -0.0674660  -0.0580168  -0.0149077
    3   0.1220359  -0.1129158   0.0759659  -0.0780729   0.0006545   0.0475149
            7           8           9          10
    1   0.1235241  -0.0769830   0.0439438  -0.0328801
    2  -0.0590870   0.0799382  -0.1076063   0.1059554
    3  -0.0856474   0.0498216  -0.1069105   0.0875537
 Max gradient component =       2.007E-01
 RMS gradient           =       8.316E-02
drvman.C: 248: out of SCF_Grad for normal SCF gradient
 Gradient time:  CPU 0.42 s  wall 0.47 s
 ------------------------------------------------------------------------------
                     drvman        : Timing summary (seconds)
 ------------------------------------------------------------------------------
     job step          cpu (% of tot)      sys (% of tot)     wall (% of tot)
 ------------------------------------------------------------------------------
 ------------------------------------------------------------------------------
   Grand Totals     0.4200E+00          0.3000E-05          0.4671E+00
 ------------------------------------------------------------------------------
drvman_main.C: 77: out of DrvMan  Time for this dynamics step: 2.4 s (CPU) 2.5 s (wall)

TIME STEP #2 (t = 20.000 a.u. = 0.48378 fs)
--------------------------------------
 Instantaneous Temperature = 615.6 K
 ----------------------------------------------------------------
             Standard Nuclear Orientation (Angstroms)
    I     Atom           X                Y                Z
 ----------------------------------------------------------------
    1      C       3.7705674935     1.4948818829     0.6178378797
    2      C       2.9613187212     1.0639515758    -0.4217722965
    3      H       4.1324376718     1.8371927225     1.6903422948
    4      H       5.1102663590     0.8004797461    -0.0438485554
    5      C       1.5763880637     1.5112961455     0.1706295834
    6      C       0.5879183933     0.9376117429    -0.4587626698
    7      H       1.3483297527     0.1758338281    -1.4928405418
    8      H      -0.5283155176     1.5023839934    -0.1664335457
    9      H       3.3485641965    -0.0231373154    -1.5916125029
   10      H       1.3868059601     2.5205594882     1.0553923032
 ----------------------------------------------------------------
 Nuclear Repulsion Energy =    98.6199568304 hartrees
 There are       15 alpha and       15 beta electrons

                       Distance Matrix (Angstroms)
             C (  1)   C (  2)   H (  3)   H (  4)   C (  5)   C (  6)
   C (  2)  1.386136
   H (  3)  1.182536  2.535833
   H (  4)  1.647670  2.197776  2.244625
   C (  5)  2.239350  1.571334  2.991509  3.611033
   C (  6)  3.405712  2.377048  4.241641  4.543412  1.304730
   H (  7)  3.473052  2.130182  4.543569  4.079452  2.145368  1.492598
   H (  8)  4.369844  3.526325  5.028154  5.683423  2.131541  1.284680
   H (  9)  2.713695  1.643243  3.853117  2.485460  2.932677  3.134893
   H ( 10)  2.631689  2.604383  2.899766  4.246312  1.355492  2.331654
             H (  7)   H (  8)   H (  9)
   H (  8)  2.653467
   H (  9)  2.012532  4.403243
   H ( 10)  3.463049  2.489424  4.162394

 Applying Cartesian multipole field
    Component          Value
    ---------          -----
     (2,0,0)        1.00000E-11
     (0,2,0)        2.00000E-11
     (0,0,2)       -3.00000E-11
 Nucleus-field energy     =     0.0000000099 hartrees
 ENuRep (before)= 98.6199568304
 ENucField = 0.0000000099
 ENuRep (after) = 98.6199568403
 Job number = 2, Threshold = 1.00E-11
Integral type ranges set in mkLRange.C for JobNum: 2  <1-6|1-6>
Symmetry turned off temporarily
Symmetry turned back on
 Job number = 11, Threshold = 1.00E-11
Integral type ranges set in mkLRange.C for JobNum: 11  <1-6|7-7>
 Smallest overlap matrix eigenvalue = 1.81E-01
 Multipole matrices computed through 2nd order
 Guess from superposition of atomic densities
 Warning:  Energy on first SCF cycle will be non-variational
 SAD guess density has 30.000000 electrons
 SCF convergence criterion is 10**(-8)
 A restricted Hartree-Fock SCF calculation will be
 performed using Pulay DIIS extrapolation
 SCF converges when DIIS error is below 1.0E-08
Finding J and K together
 Job number = 22, Threshold = 1.00E-11
Integral type ranges set in mkLRange.C for JobNum: 22  <1-6|1-6>
 MakeJK  time:  CPU       0.13 s  wall       0.13 s
Fock build time:  0.13 s (CPU) 0.13 s (wall)
DIIS Errors:  Max 1.15E+00 RMS 1.73E-01

Current DIIS subspace size = 1
REM_GRID_RESTART_DIIS = 0

 ---------------------------------------
  Cycle       Energy         DIIS Error
 ---------------------------------------
    1    -151.3545131785      1.73E-01  00000
Finding J and K together
 Job number = 22, Threshold = 1.00E-11
Integral type ranges set in mkLRange.C for JobNum: 22  <1-6|1-6>
 MakeJK  time:  CPU       0.17 s  wall       0.19 s
Fock build time:  0.17 s (CPU) 0.19 s (wall)
DIIS Errors:  Max 1.13E-01 RMS 1.56E-02

Current DIIS subspace size = 2
REM_GRID_RESTART_DIIS = 0

    2    -152.3900928080      1.56E-02  00000
Finding J and K together
 Job number = 22, Threshold = 1.00E-11
Integral type ranges set in mkLRange.C for JobNum: 22  <1-6|1-6>
 MakeJK  time:  CPU       0.16 s  wall       0.18 s
Fock build time:  0.17 s (CPU) 0.18 s (wall)
DIIS Errors:  Max 3.82E-02 RMS 6.68E-03

Current DIIS subspace size = 3
REM_GRID_RESTART_DIIS = 0

    3    -152.4388339558      6.68E-03  00000
Finding J and K together
 Job number = 22, Threshold = 1.00E-11
Integral type ranges set in mkLRange.C for JobNum: 22  <1-6|1-6>
 MakeJK  time:  CPU       0.10 s  wall       0.11 s
Fock build time:  0.10 s (CPU) 0.11 s (wall)
DIIS Errors:  Max 2.14E-02 RMS 3.35E-03

Current DIIS subspace size = 4
REM_GRID_RESTART_DIIS = 0

    4    -152.4444278112      3.35E-03  00000
Finding J and K together
 Job number = 22, Threshold = 1.00E-11
Integral type ranges set in mkLRange.C for JobNum: 22  <1-6|1-6>
 MakeJK  time:  CPU       0.14 s  wall       0.14 s
Fock build time:  0.14 s (CPU) 0.14 s (wall)
DIIS Errors:  Max 3.22E-03 RMS 5.67E-04

Current DIIS subspace size = 5
REM_GRID_RESTART_DIIS = 0

    5    -152.4459332441      5.67E-04  00000
Finding J and K together
 Job number = 22, Threshold = 1.00E-11
Integral type ranges set in mkLRange.C for JobNum: 22  <1-6|1-6>
 MakeJK  time:  CPU       0.11 s  wall       0.11 s
Fock build time:  0.11 s (CPU) 0.11 s (wall)
DIIS Errors:  Max 7.07E-04 RMS 1.47E-04

Current DIIS subspace size = 6
REM_GRID_RESTART_DIIS = 0

    6    -152.4459786080      1.47E-04  00000
Finding J and K together
 Job number = 22, Threshold = 1.00E-11
Integral type ranges set in mkLRange.C for JobNum: 22  <1-6|1-6>
 MakeJK  time:  CPU       0.12 s  wall       0.12 s
Fock build time:  0.12 s (CPU) 0.12 s (wall)
DIIS Errors:  Max 3.58E-04 RMS 6.17E-05

Current DIIS subspace size = 7
REM_GRID_RESTART_DIIS = 0

    7    -152.4459828057      6.17E-05  00000
Finding J and K together
 Job number = 22, Threshold = 1.00E-11
Integral type ranges set in mkLRange.C for JobNum: 22  <1-6|1-6>
 MakeJK  time:  CPU       0.12 s  wall       0.12 s
Fock build time:  0.12 s (CPU) 0.12 s (wall)
DIIS Errors:  Max 7.82E-05 RMS 1.71E-05

Current DIIS subspace size = 8
REM_GRID_RESTART_DIIS = 0

    8    -152.4459836356      1.71E-05  00000
Finding J and K together
 Job number = 22, Threshold = 1.00E-11
Integral type ranges set in mkLRange.C for JobNum: 22  <1-6|1-6>
 MakeJK  time:  CPU       0.10 s  wall       0.10 s
Fock build time:  0.10 s (CPU) 0.10 s (wall)
DIIS Errors:  Max 2.06E-05 RMS 4.18E-06

Current DIIS subspace size = 9
REM_GRID_RESTART_DIIS = 0

    9    -152.4459837454      4.18E-06  00000
Finding J and K together
 Job number = 22, Threshold = 1.00E-11
Integral type ranges set in mkLRange.C for JobNum: 22  <1-6|1-6>
 MakeJK  time:  CPU       0.17 s  wall       0.17 s
Fock build time:  0.17 s (CPU) 0.17 s (wall)
DIIS Errors:  Max 6.03E-06 RMS 1.05E-06

Current DIIS subspace size = 10
REM_GRID_RESTART_DIIS = 0

   10    -152.4459837535      1.05E-06  00000
Finding J and K together
 Job number = 22, Threshold = 1.00E-11
Integral type ranges set in mkLRange.C for JobNum: 22  <1-6|1-6>
 MakeJK  time:  CPU       0.17 s  wall       0.17 s
Fock build time:  0.17 s (CPU) 0.17 s (wall)
DIIS Errors:  Max 2.24E-06 RMS 3.73E-07

Current DIIS subspace size = 11
REM_GRID_RESTART_DIIS = 0

   11    -152.4459837540      3.73E-07  00000
Finding J and K together
 Job number = 22, Threshold = 1.00E-11
Integral type ranges set in mkLRange.C for JobNum: 22  <1-6|1-6>
 MakeJK  time:  CPU       0.18 s  wall       0.18 s
Fock build time:  0.18 s (CPU) 0.18 s (wall)
DIIS Errors:  Max 9.42E-07 RMS 1.33E-07

Current DIIS subspace size = 12
REM_GRID_RESTART_DIIS = 0

   12    -152.4459837541      1.33E-07  00000
Finding J and K together
 Job number = 22, Threshold = 1.00E-11
Integral type ranges set in mkLRange.C for JobNum: 22  <1-6|1-6>
 MakeJK  time:  CPU       0.17 s  wall       0.18 s
Fock build time:  0.17 s (CPU) 0.18 s (wall)
DIIS Errors:  Max 1.92E-07 RMS 2.90E-08

Current DIIS subspace size = 13
REM_GRID_RESTART_DIIS = 0

   13    -152.4459837541      2.90E-08  00000
Finding J and K together
 Job number = 22, Threshold = 1.00E-11
Integral type ranges set in mkLRange.C for JobNum: 22  <1-6|1-6>
 MakeJK  time:  CPU       0.12 s  wall       0.12 s
Fock build time:  0.12 s (CPU) 0.12 s (wall)
DIIS Errors:  Max 4.26E-08 RMS 7.07E-09

Current DIIS subspace size = 14
REM_GRID_RESTART_DIIS = 0

   14    -152.4459837541      7.07E-09  00000 Convergence criterion met
 ---------------------------------------
 SCF time:  CPU 1.98 s  wall 2.05 s
 SCF   energy in the final basis set = -152.44598375
 Total energy in the final basis set = -152.44598375
drvman_main.C: 73: calling DrvMan  Calculating analytic gradient of the SCF energy
drvman.C : 218: Calculating analytic gradient of the SCF energy
drvman.C: 244: calling SCF_Grad for normal SCF gradient
 Job number = 111, Threshold = 1.00E-11
Integral type ranges set in mkLRange.C for JobNum: 11  <1-6|7-7>
Finding J and K together
 ML is being used
 Job number = 122, Threshold = 1.00E-11
Integral type ranges set in mkLRange.C for JobNum: 22  <1-6|1-6>
 MakeJK  time:  CPU       0.42 s  wall       0.44 s
 Gradient of SCF Energy
            1           2           3           4           5           6
    1  -0.2022685  -0.0361106   0.0489953   0.0951209   0.0109354   0.0271665
    2   0.1347395  -0.0169470   0.0065514  -0.0693196  -0.0593057  -0.0081427
    3   0.1271307  -0.1078470   0.0665345  -0.0776545  -0.0000458   0.0560659
            7           8           9          10
    1   0.1217071  -0.0772652   0.0439334  -0.0322144
    2  -0.0596103   0.0773555  -0.1087402   0.1034191
    3  -0.0870422   0.0463877  -0.1075218   0.0839924
 Max gradient component =       2.023E-01
 RMS gradient           =       8.305E-02
drvman.C: 248: out of SCF_Grad for normal SCF gradient
 Gradient time:  CPU 0.44 s  wall 0.46 s
 ------------------------------------------------------------------------------
                     drvman        : Timing summary (seconds)
 ------------------------------------------------------------------------------
     job step          cpu (% of tot)      sys (% of tot)     wall (% of tot)
 ------------------------------------------------------------------------------
 ------------------------------------------------------------------------------
   Grand Totals     0.4400E+00          0.1000E-05          0.4596E+00
 ------------------------------------------------------------------------------
drvman_main.C: 77: out of DrvMan  Time for this dynamics step: 2.5 s (CPU) 2.5 s (wall)

TIME STEP #3 (t = 40.000 a.u. = 0.96755 fs)
--------------------------------------
 Instantaneous Temperature = 1389.4 K
 ----------------------------------------------------------------
             Standard Nuclear Orientation (Angstroms)
    I     Atom           X                Y                Z
 ----------------------------------------------------------------
    1      C       3.7733695078     1.4950520207     0.6116911929
    2      C       2.9618576008     1.0656127652    -0.4185535430
    3      H       4.1234150397     1.8406642686     1.6569413345
    4      H       5.0778244055     0.8070129610    -0.0200231442
    5      C       1.5747656263     1.5139087919     0.1697066509
    6      C       0.5925040443     0.9339335355    -0.4545264182
    7      H       1.3126159984     0.1826627061    -1.4701331539
    8      H      -0.5191012304     1.4696582881    -0.1886100674
    9      H       3.3354279314     0.0050716618    -1.5564715776
   10      H       1.3928447200     2.4991247752     1.0247073587
 ----------------------------------------------------------------
 Nuclear Repulsion Energy =    99.2583659587 hartrees
 There are       15 alpha and       15 beta electrons

                       Distance Matrix (Angstroms)
             C (  1)   C (  2)   H (  3)   H (  4)   C (  5)   C (  6)
   C (  2)  1.379991
   H (  3)  1.155218  2.501519
   H (  4)  1.604389  2.168644  2.188959
   C (  5)  2.242669  1.571955  2.968880  3.578704
   C (  6)  3.401408  2.373282  4.212812  4.508104  1.300337
   H (  7)  3.480182  2.146024  4.519752  4.082821  2.128383  1.454107
   H (  8)  4.366513  3.511866  5.009657  5.638537  2.124765  1.262291
   H (  9)  2.666977  1.599737  3.783695  2.457586  2.890711  3.098499
   H ( 10)  2.616418  2.569000  2.879115  4.187336  1.317107  2.297499
             H (  7)   H (  8)   H (  9)
   H (  8)  2.579505
   H (  9)  2.032427  4.344359
   H ( 10)  3.405387  2.487464  4.081227

 Applying Cartesian multipole field
    Component          Value
    ---------          -----
     (2,0,0)        1.00000E-11
     (0,2,0)        2.00000E-11
     (0,0,2)       -3.00000E-11
 Nucleus-field energy     =     0.0000000099 hartrees
 ENuRep (before)= 99.2583659587
 ENucField = 0.0000000099
 ENuRep (after) = 99.2583659685
 Job number = 2, Threshold = 1.00E-11
Integral type ranges set in mkLRange.C for JobNum: 2  <1-6|1-6>
Symmetry turned off temporarily
Symmetry turned back on
 Job number = 11, Threshold = 1.00E-11
Integral type ranges set in mkLRange.C for JobNum: 11  <1-6|7-7>
 Smallest overlap matrix eigenvalue = 1.78E-01
 Multipole matrices computed through 2nd order
 Guess from superposition of atomic densities
 Warning:  Energy on first SCF cycle will be non-variational
 SAD guess density has 30.000000 electrons
 SCF convergence criterion is 10**(-8)
 A restricted Hartree-Fock SCF calculation will be
 performed using Pulay DIIS extrapolation
 SCF converges when DIIS error is below 1.0E-08
Finding J and K together
 Job number = 22, Threshold = 1.00E-11
Integral type ranges set in mkLRange.C for JobNum: 22  <1-6|1-6>
 MakeJK  time:  CPU       0.13 s  wall       0.13 s
Fock build time:  0.13 s (CPU) 0.13 s (wall)
DIIS Errors:  Max 1.16E+00 RMS 1.77E-01

Current DIIS subspace size = 1
REM_GRID_RESTART_DIIS = 0

 ---------------------------------------
  Cycle       Energy         DIIS Error
 ---------------------------------------
    1    -151.4562606977      1.77E-01  00000
Finding J and K together
 Job number = 22, Threshold = 1.00E-11
Integral type ranges set in mkLRange.C for JobNum: 22  <1-6|1-6>
 MakeJK  time:  CPU       0.15 s  wall       0.15 s
Fock build time:  0.15 s (CPU) 0.15 s (wall)
DIIS Errors:  Max 1.03E-01 RMS 1.52E-02

Current DIIS subspace size = 2
REM_GRID_RESTART_DIIS = 0

    2    -152.4562023329      1.52E-02  00000
Finding J and K together
 Job number = 22, Threshold = 1.00E-11
Integral type ranges set in mkLRange.C for JobNum: 22  <1-6|1-6>
 MakeJK  time:  CPU       0.16 s  wall       0.16 s
Fock build time:  0.16 s (CPU) 0.16 s (wall)
DIIS Errors:  Max 3.42E-02 RMS 5.95E-03

Current DIIS subspace size = 3
REM_GRID_RESTART_DIIS = 0

    3    -152.5013070336      5.95E-03  00000
Finding J and K together
 Job number = 22, Threshold = 1.00E-11
Integral type ranges set in mkLRange.C for JobNum: 22  <1-6|1-6>
 MakeJK  time:  CPU       0.12 s  wall       0.12 s
Fock build time:  0.12 s (CPU) 0.12 s (wall)
DIIS Errors:  Max 1.90E-02 RMS 3.07E-03

Current DIIS subspace size = 4
REM_GRID_RESTART_DIIS = 0

    4    -152.5059444199      3.07E-03  00000
Finding J and K together
 Job number = 22, Threshold = 1.00E-11
Integral type ranges set in mkLRange.C for JobNum: 22  <1-6|1-6>
 MakeJK  time:  CPU       0.12 s  wall       0.12 s
Fock build time:  0.12 s (CPU) 0.12 s (wall)
DIIS Errors:  Max 2.72E-03 RMS 4.74E-04

Current DIIS subspace size = 5
REM_GRID_RESTART_DIIS = 0

    5    -152.5071471644      4.74E-04  00000
Finding J and K together
 Job number = 22, Threshold = 1.00E-11
Integral type ranges set in mkLRange.C for JobNum: 22  <1-6|1-6>
 MakeJK  time:  CPU       0.15 s  wall       0.15 s
Fock build time:  0.15 s (CPU) 0.15 s (wall)
DIIS Errors:  Max 6.34E-04 RMS 1.28E-04

Current DIIS subspace size = 6
REM_GRID_RESTART_DIIS = 0

    6    -152.5071783262      1.28E-04  00000
Finding J and K together
 Job number = 22, Threshold = 1.00E-11
Integral type ranges set in mkLRange.C for JobNum: 22  <1-6|1-6>
 MakeJK  time:  CPU       0.16 s  wall       0.16 s
Fock build time:  0.16 s (CPU) 0.16 s (wall)
DIIS Errors:  Max 3.22E-04 RMS 5.13E-05

Current DIIS subspace size = 7
REM_GRID_RESTART_DIIS = 0

    7    -152.5071813484      5.13E-05  00000
Finding J and K together
 Job number = 22, Threshold = 1.00E-11
Integral type ranges set in mkLRange.C for JobNum: 22  <1-6|1-6>
 MakeJK  time:  CPU       0.11 s  wall       0.11 s
Fock build time:  0.11 s (CPU) 0.11 s (wall)
DIIS Errors:  Max 6.63E-05 RMS 1.38E-05

Current DIIS subspace size = 8
REM_GRID_RESTART_DIIS = 0

    8    -152.5071819091      1.38E-05  00000
Finding J and K together
 Job number = 22, Threshold = 1.00E-11
Integral type ranges set in mkLRange.C for JobNum: 22  <1-6|1-6>
 MakeJK  time:  CPU       0.10 s  wall       0.10 s
Fock build time:  0.10 s (CPU) 0.10 s (wall)
DIIS Errors:  Max 1.50E-05 RMS 3.20E-06

Current DIIS subspace size = 9
REM_GRID_RESTART_DIIS = 0

    9    -152.5071819752      3.20E-06  00000
Finding J and K together
 Job number = 22, Threshold = 1.00E-11
Integral type ranges set in mkLRange.C for JobNum: 22  <1-6|1-6>
 MakeJK  time:  CPU       0.15 s  wall       0.15 s
Fock build time:  0.15 s (CPU) 0.15 s (wall)
DIIS Errors:  Max 4.91E-06 RMS 8.53E-07

Current DIIS subspace size = 10
REM_GRID_RESTART_DIIS = 0

   10    -152.5071819797      8.53E-07  00000
Finding J and K together
 Job number = 22, Threshold = 1.00E-11
Integral type ranges set in mkLRange.C for JobNum: 22  <1-6|1-6>
 MakeJK  time:  CPU       0.10 s  wall       0.11 s
Fock build time:  0.10 s (CPU) 0.11 s (wall)
DIIS Errors:  Max 2.08E-06 RMS 3.08E-07

Current DIIS subspace size = 11
REM_GRID_RESTART_DIIS = 0

   11    -152.5071819800      3.08E-07  00000
Finding J and K together
 Job number = 22, Threshold = 1.00E-11
Integral type ranges set in mkLRange.C for JobNum: 22  <1-6|1-6>
 MakeJK  time:  CPU       0.11 s  wall       0.11 s
Fock build time:  0.11 s (CPU) 0.11 s (wall)
DIIS Errors:  Max 8.22E-07 RMS 1.07E-07

Current DIIS subspace size = 12
REM_GRID_RESTART_DIIS = 0

   12    -152.5071819800      1.07E-07  00000
Finding J and K together
 Job number = 22, Threshold = 1.00E-11
Integral type ranges set in mkLRange.C for JobNum: 22  <1-6|1-6>
 MakeJK  time:  CPU       0.13 s  wall       0.13 s
Fock build time:  0.13 s (CPU) 0.13 s (wall)
DIIS Errors:  Max 1.48E-07 RMS 2.26E-08

Current DIIS subspace size = 13
REM_GRID_RESTART_DIIS = 0

   13    -152.5071819800      2.26E-08  00000
Finding J and K together
 Job number = 22, Threshold = 1.00E-11
Integral type ranges set in mkLRange.C for JobNum: 22  <1-6|1-6>
 MakeJK  time:  CPU       0.14 s  wall       0.14 s
Fock build time:  0.14 s (CPU) 0.14 s (wall)
DIIS Errors:  Max 3.22E-08 RMS 5.05E-09

Current DIIS subspace size = 14
REM_GRID_RESTART_DIIS = 0

   14    -152.5071819800      5.05E-09  00000 Convergence criterion met
 ---------------------------------------
 SCF time:  CPU 1.86 s  wall 1.88 s
 SCF   energy in the final basis set = -152.50718198
 Total energy in the final basis set = -152.50718198
drvman_main.C: 73: calling DrvMan  Calculating analytic gradient of the SCF energy
drvman.C : 218: Calculating analytic gradient of the SCF energy
drvman.C: 244: calling SCF_Grad for normal SCF gradient
 Job number = 111, Threshold = 1.00E-11
Integral type ranges set in mkLRange.C for JobNum: 11  <1-6|7-7>
Finding J and K together
 ML is being used
 Job number = 122, Threshold = 1.00E-11
Integral type ranges set in mkLRange.C for JobNum: 22  <1-6|1-6>
 MakeJK  time:  CPU       0.39 s  wall       0.39 s
 Gradient of SCF Energy
            1           2           3           4           5           6
    1  -0.2033482  -0.0295643   0.0458568   0.0950220   0.0035387   0.0308707
    2   0.1405378  -0.0142904   0.0016508  -0.0712324  -0.0569666  -0.0002779
    3   0.1364071  -0.1013241   0.0518449  -0.0771307   0.0024293   0.0645219
            7           8           9          10
    1   0.1187164  -0.0739452   0.0436309  -0.0307778
    2  -0.0595863   0.0727652  -0.1099526   0.0973524
    3  -0.0876934   0.0418493  -0.1082586   0.0773542
 Max gradient component =       2.033E-01
 RMS gradient           =       8.251E-02
drvman.C: 248: out of SCF_Grad for normal SCF gradient
 Gradient time:  CPU 0.40 s  wall 0.41 s
 ------------------------------------------------------------------------------
                     drvman        : Timing summary (seconds)
 ------------------------------------------------------------------------------
     job step          cpu (% of tot)      sys (% of tot)     wall (% of tot)
 ------------------------------------------------------------------------------
 ------------------------------------------------------------------------------
   Grand Totals     0.4040E+00          0.1000E-05          0.4052E+00
 ------------------------------------------------------------------------------
drvman_main.C: 77: out of DrvMan  Time for this dynamics step: 2.3 s (CPU) 2.3 s (wall)

TIME STEP #4 (t = 60.000 a.u. = 1.45133 fs)
--------------------------------------
 Instantaneous Temperature = 2673.4 K
 ----------------------------------------------------------------
             Standard Nuclear Orientation (Angstroms)
    I     Atom           X                Y                Z
 ----------------------------------------------------------------
    1      C       3.7781392273     1.4938622400     0.6042245587
    2      C       2.9626825603     1.0674122362    -0.4143543236
    3      H       4.1091089560     1.8439456122     1.6175669993
    4      H       5.0344343735     0.8217533111     0.0126889751
    5      C       1.5731089468     1.5170726779     0.1687602109
    6      C       0.5967909737     0.9302580168    -0.4509145152
    7      H       1.2632241852     0.1963568962    -1.4373220660
    8      H      -0.5013672489     1.4285488490    -0.2156083046
    9      H       3.3172646806     0.0459489608    -1.5088575006
   10      H       1.4024295818     2.4664734830     0.9851099498
 ----------------------------------------------------------------
 Nuclear Repulsion Energy =   100.1313476250 hartrees
 There are       15 alpha and       15 beta electrons

                       Distance Matrix (Angstroms)
             C (  1)   C (  2)   H (  3)   H (  4)   C (  5)   C (  6)
   C (  2)  1.372710
   H (  3)  1.122035  2.458862
   H (  4)  1.542700  2.129523  2.115830
   C (  5)  2.247738  1.572619  2.938908  3.533921
   C (  6)  3.398815  2.370146  4.177298  4.463113  1.296744
   H (  7)  3.489446  2.166416  4.488425  4.088481  2.102337  1.398479
   H (  8)  4.357817  3.488490  4.978913  5.573636  2.111641  1.228664
   H (  9)  2.602686  1.538523  3.692471  2.421910  2.832081  3.049955
   H ( 10)  2.595196  2.519973  2.848448  4.103921  1.263693  2.251928
             H (  7)   H (  8)   H (  9)
   H (  8)  2.474806
   H (  9)  2.060782  4.262162
   H ( 10)  3.322798  2.478599  3.968048

 Applying Cartesian multipole field
    Component          Value
    ---------          -----
     (2,0,0)        1.00000E-11
     (0,2,0)        2.00000E-11
     (0,0,2)       -3.00000E-11
 Nucleus-field energy     =     0.0000000099 hartrees
 ENuRep (before)= 100.1313476250
 ENucField = 0.0000000099
 ENuRep (after) = 100.1313476350
 Job number = 2, Threshold = 1.00E-11
Integral type ranges set in mkLRange.C for JobNum: 2  <1-6|1-6>
Symmetry turned off temporarily
Symmetry turned back on
 Job number = 11, Threshold = 1.00E-11
Integral type ranges set in mkLRange.C for JobNum: 11  <1-6|7-7>
 Smallest overlap matrix eigenvalue = 1.76E-01
 Multipole matrices computed through 2nd order
 Guess from superposition of atomic densities
 Warning:  Energy on first SCF cycle will be non-variational
 SAD guess density has 30.000000 electrons
 SCF convergence criterion is 10**(-8)
 A restricted Hartree-Fock SCF calculation will be
 performed using Pulay DIIS extrapolation
 SCF converges when DIIS error is below 1.0E-08
Finding J and K together
 Job number = 22, Threshold = 1.00E-11
Integral type ranges set in mkLRange.C for JobNum: 22  <1-6|1-6>
 MakeJK  time:  CPU       0.12 s  wall       0.12 s
Fock build time:  0.12 s (CPU) 0.12 s (wall)
DIIS Errors:  Max 1.17E+00 RMS 1.82E-01

Current DIIS subspace size = 1
REM_GRID_RESTART_DIIS = 0

 ---------------------------------------
  Cycle       Energy         DIIS Error
 ---------------------------------------
    1    -151.6030656386      1.82E-01  00000
Finding J and K together
 Job number = 22, Threshold = 1.00E-11
Integral type ranges set in mkLRange.C for JobNum: 22  <1-6|1-6>
 MakeJK  time:  CPU       0.13 s  wall       0.13 s
Fock build time:  0.13 s (CPU) 0.13 s (wall)
DIIS Errors:  Max 8.83E-02 RMS 1.47E-02

Current DIIS subspace size = 2
REM_GRID_RESTART_DIIS = 0

    2    -152.5443616028      1.47E-02  00000
Finding J and K together
 Job number = 22, Threshold = 1.00E-11
Integral type ranges set in mkLRange.C for JobNum: 22  <1-6|1-6>
 MakeJK  time:  CPU       0.13 s  wall       0.13 s
Fock build time:  0.13 s (CPU) 0.13 s (wall)
DIIS Errors:  Max 2.94E-02 RMS 5.14E-03

Current DIIS subspace size = 3
REM_GRID_RESTART_DIIS = 0

    3    -152.5848774993      5.14E-03  00000
Finding J and K together
 Job number = 22, Threshold = 1.00E-11
Integral type ranges set in mkLRange.C for JobNum: 22  <1-6|1-6>
 MakeJK  time:  CPU       0.14 s  wall       0.14 s
Fock build time:  0.14 s (CPU) 0.14 s (wall)
DIIS Errors:  Max 1.46E-02 RMS 2.60E-03

Current DIIS subspace size = 4
REM_GRID_RESTART_DIIS = 0

    4    -152.5886266854      2.60E-03  00000
Finding J and K together
 Job number = 22, Threshold = 1.00E-11
Integral type ranges set in mkLRange.C for JobNum: 22  <1-6|1-6>
 MakeJK  time:  CPU       0.14 s  wall       0.14 s
Fock build time:  0.14 s (CPU) 0.14 s (wall)
DIIS Errors:  Max 2.15E-03 RMS 3.59E-04

Current DIIS subspace size = 5
REM_GRID_RESTART_DIIS = 0

    5    -152.5894413579      3.59E-04  00000
Finding J and K together
 Job number = 22, Threshold = 1.00E-11
Integral type ranges set in mkLRange.C for JobNum: 22  <1-6|1-6>
 MakeJK  time:  CPU       0.12 s  wall       0.12 s
Fock build time:  0.12 s (CPU) 0.12 s (wall)
DIIS Errors:  Max 5.35E-04 RMS 1.05E-04

Current DIIS subspace size = 6
REM_GRID_RESTART_DIIS = 0

    6    -152.5894591208      1.05E-04  00000
Finding J and K together
 Job number = 22, Threshold = 1.00E-11
Integral type ranges set in mkLRange.C for JobNum: 22  <1-6|1-6>
 MakeJK  time:  CPU       0.12 s  wall       0.12 s
Fock build time:  0.12 s (CPU) 0.12 s (wall)
DIIS Errors:  Max 2.82E-04 RMS 4.01E-05

Current DIIS subspace size = 7
REM_GRID_RESTART_DIIS = 0

    7    -152.5894610474      4.01E-05  00000
Finding J and K together
 Job number = 22, Threshold = 1.00E-11
Integral type ranges set in mkLRange.C for JobNum: 22  <1-6|1-6>
 MakeJK  time:  CPU       0.12 s  wall       0.12 s
Fock build time:  0.12 s (CPU) 0.12 s (wall)
DIIS Errors:  Max 5.37E-05 RMS 1.07E-05

Current DIIS subspace size = 8
REM_GRID_RESTART_DIIS = 0

    8    -152.5894613758      1.07E-05  00000
Finding J and K together
 Job number = 22, Threshold = 1.00E-11
Integral type ranges set in mkLRange.C for JobNum: 22  <1-6|1-6>
 MakeJK  time:  CPU       0.13 s  wall       0.13 s
Fock build time:  0.13 s (CPU) 0.13 s (wall)
DIIS Errors:  Max 1.09E-05 RMS 2.36E-06

Current DIIS subspace size = 9
REM_GRID_RESTART_DIIS = 0

    9    -152.5894614108      2.36E-06  00000
Finding J and K together
 Job number = 22, Threshold = 1.00E-11
Integral type ranges set in mkLRange.C for JobNum: 22  <1-6|1-6>
 MakeJK  time:  CPU       0.15 s  wall       0.16 s
Fock build time:  0.15 s (CPU) 0.16 s (wall)
DIIS Errors:  Max 3.54E-06 RMS 6.53E-07

Current DIIS subspace size = 10
REM_GRID_RESTART_DIIS = 0

   10    -152.5894614130      6.53E-07  00000
Finding J and K together
 Job number = 22, Threshold = 1.00E-11
Integral type ranges set in mkLRange.C for JobNum: 22  <1-6|1-6>
 MakeJK  time:  CPU       0.16 s  wall       0.17 s
Fock build time:  0.16 s (CPU) 0.17 s (wall)
DIIS Errors:  Max 1.68E-06 RMS 2.26E-07

Current DIIS subspace size = 11
REM_GRID_RESTART_DIIS = 0

   11    -152.5894614132      2.26E-07  00000
Finding J and K together
 Job number = 22, Threshold = 1.00E-11
Integral type ranges set in mkLRange.C for JobNum: 22  <1-6|1-6>
 MakeJK  time:  CPU       0.15 s  wall       0.16 s
Fock build time:  0.15 s (CPU) 0.16 s (wall)
DIIS Errors:  Max 6.32E-07 RMS 7.84E-08

Current DIIS subspace size = 12
REM_GRID_RESTART_DIIS = 0

   12    -152.5894614132      7.84E-08  00000
Finding J and K together
 Job number = 22, Threshold = 1.00E-11
Integral type ranges set in mkLRange.C for JobNum: 22  <1-6|1-6>
 MakeJK  time:  CPU       0.10 s  wall       0.11 s
Fock build time:  0.11 s (CPU) 0.11 s (wall)
DIIS Errors:  Max 9.29E-08 RMS 1.53E-08

Current DIIS subspace size = 13
REM_GRID_RESTART_DIIS = 0

   13    -152.5894614132      1.53E-08  00000
Finding J and K together
 Job number = 22, Threshold = 1.00E-11
Integral type ranges set in mkLRange.C for JobNum: 22  <1-6|1-6>
 MakeJK  time:  CPU       0.11 s  wall       0.12 s
Fock build time:  0.11 s (CPU) 0.12 s (wall)
DIIS Errors:  Max 1.54E-08 RMS 2.83E-09

Current DIIS subspace size = 14
REM_GRID_RESTART_DIIS = 0

   14    -152.5894614132      2.83E-09  00000 Convergence criterion met
 ---------------------------------------
 SCF time:  CPU 1.86 s  wall 1.90 s
 SCF   energy in the final basis set = -152.58946141
 Total energy in the final basis set = -152.58946141
drvman_main.C: 73: calling DrvMan  Calculating analytic gradient of the SCF energy
drvman.C : 218: Calculating analytic gradient of the SCF energy
drvman.C: 244: calling SCF_Grad for normal SCF gradient
 Job number = 111, Threshold = 1.00E-11
Integral type ranges set in mkLRange.C for JobNum: 11  <1-6|7-7>
Finding J and K together
 ML is being used
 Job number = 122, Threshold = 1.00E-11
Integral type ranges set in mkLRange.C for JobNum: 22  <1-6|1-6>
 MakeJK  time:  CPU       0.42 s  wall       0.43 s
 Gradient of SCF Energy
            1           2           3           4           5           6
    1  -0.2026171  -0.0205941   0.0412627   0.0939966  -0.0045052   0.0305984
    2   0.1478370  -0.0117513  -0.0057050  -0.0726670  -0.0486668   0.0078975
    3   0.1497377  -0.0941909   0.0312795  -0.0758515   0.0100304   0.0715495
            7           8           9          10
    1   0.1130871  -0.0658374   0.0428135  -0.0282046
    2  -0.0579728   0.0656492  -0.1102364   0.0856154
    3  -0.0862697   0.0359047  -0.1080560   0.0658663
 Max gradient component =       2.026E-01
 RMS gradient           =       8.116E-02
drvman.C: 248: out of SCF_Grad for normal SCF gradient
 Gradient time:  CPU 0.43 s  wall 0.44 s
 ------------------------------------------------------------------------------
                     drvman        : Timing summary (seconds)
 ------------------------------------------------------------------------------
     job step          cpu (% of tot)      sys (% of tot)     wall (% of tot)
 ------------------------------------------------------------------------------
 ------------------------------------------------------------------------------
   Grand Totals     0.4320E+00          0.1000E-05          0.4439E+00
 ------------------------------------------------------------------------------
drvman_main.C: 77: out of DrvMan  Time for this dynamics step: 2.3 s (CPU) 2.4 s (wall)

TIME STEP #5 (t = 80.000 a.u. = 1.93511 fs)
--------------------------------------
 Instantaneous Temperature = 4396.4 K
 ----------------------------------------------------------------
             Standard Nuclear Orientation (Angstroms)
    I     Atom           X                Y                Z
 ----------------------------------------------------------------
    1      C       3.7848695780     1.4912419092     0.5953089828
    2      C       2.9637067992     1.0693254185    -0.4092436633
    3      H       4.0900487411     1.8478842660     1.5745887600
    4      H       4.9802144050     0.8448660764     0.0541404192
    5      C       1.5714958621     1.5207074896     0.1677167109
    6      C       0.6007818163     0.9265060778    -0.4479949630
    7      H       1.2008029000     0.2167304912    -1.3945713057
    8      H      -0.4760477313     1.3798755514    -0.2467433461
    9      H       3.2941686149     0.0995272884    -1.4487936135
   10      H       1.4152640686     2.4239578998     0.9379236693
 ----------------------------------------------------------------
 Nuclear Repulsion Energy =   101.2548474183 hartrees
 There are       15 alpha and       15 beta electrons

                       Distance Matrix (Angstroms)
             C (  1)   C (  2)   H (  3)   H (  4)   C (  5)   C (  6)
   C (  2)  1.364349
   H (  3)  1.085964  2.410475
   H (  4)  1.462708  2.081204  2.027364
   C (  5)  2.254490  1.573175  2.903350  3.476927
   C (  6)  3.397915  2.367554  4.137000  4.408881  1.294010
   H (  7)  3.501629  2.192172  4.452451  4.096007  2.068457  1.326580
   H (  8)  4.344752  3.457565  4.938170  5.490680  2.093811  1.185583
   H (  9)  2.521113  1.459581  3.582041  2.378464  2.756893  2.989954
   H ( 10)  2.569509  2.459180  2.809213  3.997934  1.197284  2.196933
             H (  7)   H (  8)   H (  9)
   H (  8)  2.341419
   H (  9)  2.097345  4.159176
   H ( 10)  3.218444  2.463860  3.824876

 Applying Cartesian multipole field
    Component          Value
    ---------          -----
     (2,0,0)        1.00000E-11
     (0,2,0)        2.00000E-11
     (0,0,2)       -3.00000E-11
 Nucleus-field energy     =     0.0000000099 hartrees
 ENuRep (before)= 101.2548474183
 ENucField = 0.0000000099
 ENuRep (after) = 101.2548474282
 Job number = 2, Threshold = 1.00E-11
Integral type ranges set in mkLRange.C for JobNum: 2  <1-6|1-6>
Symmetry turned off temporarily
Symmetry turned back on
 Job number = 11, Threshold = 1.00E-11
Integral type ranges set in mkLRange.C for JobNum: 11  <1-6|7-7>
 Smallest overlap matrix eigenvalue = 1.73E-01
 Multipole matrices computed through 2nd order
 Guess from superposition of atomic densities
 Warning:  Energy on first SCF cycle will be non-variational
 SAD guess density has 30.000000 electrons
 SCF convergence criterion is 10**(-8)
 A restricted Hartree-Fock SCF calculation will be
 performed using Pulay DIIS extrapolation
 SCF converges when DIIS error is below 1.0E-08
Finding J and K together
 Job number = 22, Threshold = 1.00E-11
Integral type ranges set in mkLRange.C for JobNum: 22  <1-6|1-6>
 MakeJK  time:  CPU       0.13 s  wall       0.15 s
Fock build time:  0.13 s (CPU) 0.15 s (wall)
DIIS Errors:  Max 1.18E+00 RMS 1.88E-01

Current DIIS subspace size = 1
REM_GRID_RESTART_DIIS = 0

 ---------------------------------------
  Cycle       Energy         DIIS Error
 ---------------------------------------
    1    -151.8042784235      1.88E-01  00000
Finding J and K together
 Job number = 22, Threshold = 1.00E-11
Integral type ranges set in mkLRange.C for JobNum: 22  <1-6|1-6>
 MakeJK  time:  CPU       0.17 s  wall       0.18 s
Fock build time:  0.17 s (CPU) 0.18 s (wall)
DIIS Errors:  Max 7.09E-02 RMS 1.41E-02

Current DIIS subspace size = 2
REM_GRID_RESTART_DIIS = 0

    2    -152.6471393390      1.41E-02  00000
Finding J and K together
 Job number = 22, Threshold = 1.00E-11
Integral type ranges set in mkLRange.C for JobNum: 22  <1-6|1-6>
 MakeJK  time:  CPU       0.17 s  wall       0.18 s
Fock build time:  0.17 s (CPU) 0.18 s (wall)
DIIS Errors:  Max 2.53E-02 RMS 4.45E-03

Current DIIS subspace size = 3
REM_GRID_RESTART_DIIS = 0

    3    -152.6827739317      4.45E-03  00000
Finding J and K together
 Job number = 22, Threshold = 1.00E-11
Integral type ranges set in mkLRange.C for JobNum: 22  <1-6|1-6>
 MakeJK  time:  CPU       0.17 s  wall       0.18 s
Fock build time:  0.17 s (CPU) 0.18 s (wall)
DIIS Errors:  Max 1.02E-02 RMS 1.97E-03

Current DIIS subspace size = 4
REM_GRID_RESTART_DIIS = 0

    4    -152.6858485815      1.97E-03  00000
Finding J and K together
 Job number = 22, Threshold = 1.00E-11
Integral type ranges set in mkLRange.C for JobNum: 22  <1-6|1-6>
 MakeJK  time:  CPU       0.17 s  wall       0.17 s
Fock build time:  0.17 s (CPU) 0.17 s (wall)
DIIS Errors:  Max 1.47E-03 RMS 2.40E-04

Current DIIS subspace size = 5
REM_GRID_RESTART_DIIS = 0

    5    -152.6862986429      2.40E-04  00000
Finding J and K together
 Job number = 22, Threshold = 1.00E-11
Integral type ranges set in mkLRange.C for JobNum: 22  <1-6|1-6>
 MakeJK  time:  CPU       0.16 s  wall       0.16 s
Fock build time:  0.16 s (CPU) 0.16 s (wall)
DIIS Errors:  Max 3.88E-04 RMS 7.58E-05

Current DIIS subspace size = 6
REM_GRID_RESTART_DIIS = 0

    6    -152.6863069471      7.58E-05  00000
Finding J and K together
 Job number = 22, Threshold = 1.00E-11
Integral type ranges set in mkLRange.C for JobNum: 22  <1-6|1-6>
 MakeJK  time:  CPU       0.16 s  wall       0.17 s
Fock build time:  0.16 s (CPU) 0.17 s (wall)
DIIS Errors:  Max 2.36E-04 RMS 3.01E-05

Current DIIS subspace size = 7
REM_GRID_RESTART_DIIS = 0

    7    -152.6863079761      3.01E-05  00000
Finding J and K together
 Job number = 22, Threshold = 1.00E-11
Integral type ranges set in mkLRange.C for JobNum: 22  <1-6|1-6>
 MakeJK  time:  CPU       0.15 s  wall       0.15 s
Fock build time:  0.15 s (CPU) 0.15 s (wall)
DIIS Errors:  Max 4.12E-05 RMS 8.48E-06

Current DIIS subspace size = 8
REM_GRID_RESTART_DIIS = 0

    8    -152.6863081357      8.48E-06  00000
Finding J and K together
 Job number = 22, Threshold = 1.00E-11
Integral type ranges set in mkLRange.C for JobNum: 22  <1-6|1-6>
 MakeJK  time:  CPU       0.11 s  wall       0.11 s
Fock build time:  0.11 s (CPU) 0.11 s (wall)
DIIS Errors:  Max 7.70E-06 RMS 1.77E-06

Current DIIS subspace size = 9
REM_GRID_RESTART_DIIS = 0

    9    -152.6863081540      1.77E-06  00000
Finding J and K together
 Job number = 22, Threshold = 1.00E-11
Integral type ranges set in mkLRange.C for JobNum: 22  <1-6|1-6>
 MakeJK  time:  CPU       0.12 s  wall       0.11 s
Fock build time:  0.12 s (CPU) 0.11 s (wall)
DIIS Errors:  Max 2.50E-06 RMS 4.62E-07

Current DIIS subspace size = 10
REM_GRID_RESTART_DIIS = 0

   10    -152.6863081551      4.62E-07  00000
Finding J and K together
 Job number = 22, Threshold = 1.00E-11
Integral type ranges set in mkLRange.C for JobNum: 22  <1-6|1-6>
 MakeJK  time:  CPU       0.11 s  wall       0.11 s
Fock build time:  0.11 s (CPU) 0.11 s (wall)
DIIS Errors:  Max 1.16E-06 RMS 1.50E-07

Current DIIS subspace size = 11
REM_GRID_RESTART_DIIS = 0

   11    -152.6863081551      1.50E-07  00000
Finding J and K together
 Job number = 22, Threshold = 1.00E-11
Integral type ranges set in mkLRange.C for JobNum: 22  <1-6|1-6>
 MakeJK  time:  CPU       0.12 s  wall       0.12 s
Fock build time:  0.12 s (CPU) 0.12 s (wall)
DIIS Errors:  Max 4.24E-07 RMS 5.31E-08

Current DIIS subspace size = 12
REM_GRID_RESTART_DIIS = 0

   12    -152.6863081551      5.31E-08  00000
Finding J and K together
 Job number = 22, Threshold = 1.00E-11
Integral type ranges set in mkLRange.C for JobNum: 22  <1-6|1-6>
 MakeJK  time:  CPU       0.11 s  wall       0.11 s
Fock build time:  0.11 s (CPU) 0.11 s (wall)
DIIS Errors:  Max 5.09E-08 RMS 9.27E-09

Current DIIS subspace size = 13
REM_GRID_RESTART_DIIS = 0

   13    -152.6863081552      9.27E-09  00000 Convergence criterion met
 ---------------------------------------
 SCF time:  CPU 1.86 s  wall 1.93 s
 SCF   energy in the final basis set = -152.68630816
 Total energy in the final basis set = -152.68630816
drvman_main.C: 73: calling DrvMan  Calculating analytic gradient of the SCF energy
drvman.C : 218: Calculating analytic gradient of the SCF energy
drvman.C: 244: calling SCF_Grad for normal SCF gradient
 Job number = 111, Threshold = 1.00E-11
Integral type ranges set in mkLRange.C for JobNum: 11  <1-6|7-7>
Finding J and K together
 ML is being used
 Job number = 122, Threshold = 1.00E-11
Integral type ranges set in mkLRange.C for JobNum: 22  <1-6|1-6>
 MakeJK  time:  CPU       0.31 s  wall       0.30 s
 Gradient of SCF Energy
            1           2           3           4           5           6
    1  -0.1981050  -0.0090232   0.0355880   0.0901789  -0.0134600   0.0262163
    2   0.1556814  -0.0108845  -0.0158642  -0.0725052  -0.0306795   0.0147947
    3   0.1657284  -0.0880584   0.0049322  -0.0726845   0.0258175   0.0746500
            7           8           9          10
    1   0.1026451  -0.0510765   0.0409745  -0.0239382
    2  -0.0527844   0.0553242  -0.1077538   0.0646711
    3  -0.0802256   0.0281916  -0.1049737   0.0466223
 Max gradient component =       1.981E-01
 RMS gradient           =       7.850E-02
drvman.C: 248: out of SCF_Grad for normal SCF gradient
 Gradient time:  CPU 0.32 s  wall 0.32 s
 ------------------------------------------------------------------------------
                     drvman        : Timing summary (seconds)
 ------------------------------------------------------------------------------
     job step          cpu (% of tot)      sys (% of tot)     wall (% of tot)
 ------------------------------------------------------------------------------
 ------------------------------------------------------------------------------
   Grand Totals     0.3200E+00          0.2000E-05          0.3198E+00
 ------------------------------------------------------------------------------
drvman_main.C: 77: out of DrvMan  Time for this dynamics step: 2.2 s (CPU) 2.3 s (wall)

TIME STEP #6 (t = 100.000 a.u. = 2.41888 fs)
--------------------------------------
 Instantaneous Temperature = 6418.0 K
 ----------------------------------------------------------------
             Standard Nuclear Orientation (Angstroms)
    I     Atom           X                Y                Z
 ----------------------------------------------------------------
    1      C       3.7935168978     1.4871151220     0.5847897302
    2      C       2.9648183518     1.0713439249    -0.4032809031
    3      H       4.0668882124     1.8536507343     1.5310422517
    4      H       4.9156043601     0.8763326226     0.1039663005
    5      C       1.5700130234     1.5246391724     0.1664233867
    6      C       0.6045189759     0.9226109769    -0.4457977643
    7      H       1.1265552279     0.2431857034    -1.3425772489
    8      H      -0.4448433751     1.3248280012    -0.2811265223
    9      H       3.2663516176     0.1655206012    -1.3766350529
   10      H       1.4308566261     2.3739911532     0.8853657389
 ----------------------------------------------------------------
 Nuclear Repulsion Energy =   102.6439417279 hartrees
 There are       15 alpha and       15 beta electrons

                       Distance Matrix (Angstroms)
             C (  1)   C (  2)   H (  3)   H (  4)   C (  5)   C (  6)
   C (  2)  1.354950
   H (  3)  1.050940  2.359697
   H (  4)  1.365037  2.025067  1.926659
   C (  5)  2.262832  1.573379  2.864406  3.408399
   C (  6)  3.398600  2.365363  4.094232  4.346244  1.292065
   H (  7)  3.517782  2.224261  4.415523  4.104906  2.028758  1.240304
   H (  8)  4.328954  3.421253  4.890739  5.392944  2.073613  1.135807
   H (  9)  2.423160  1.363399  3.456187  2.327546  2.665670  2.919760
   H ( 10)  2.541468  2.389673  2.763388  3.872600  1.121446  2.135728
             H (  7)   H (  8)   H (  9)
   H (  8)  2.183099
   H (  9)  2.141476  4.039443
   H ( 10)  3.097848  2.445342  3.655548

 Applying Cartesian multipole field
    Component          Value
    ---------          -----
     (2,0,0)        1.00000E-11
     (0,2,0)        2.00000E-11
     (0,0,2)       -3.00000E-11
 Nucleus-field energy     =     0.0000000100 hartrees
 ENuRep (before)= 102.6439417279
 ENucField = 0.0000000100
 ENuRep (after) = 102.6439417379
 Job number = 2, Threshold = 1.00E-11
Integral type ranges set in mkLRange.C for JobNum: 2  <1-6|1-6>
Symmetry turned off temporarily
Symmetry turned back on
 Job number = 11, Threshold = 1.00E-11
Integral type ranges set in mkLRange.C for JobNum: 11  <1-6|7-7>
 Smallest overlap matrix eigenvalue = 1.70E-01
 Multipole matrices computed through 2nd order
 Guess from superposition of atomic densities
 Warning:  Energy on first SCF cycle will be non-variational
 SAD guess density has 30.000000 electrons
 SCF convergence criterion is 10**(-8)
 A restricted Hartree-Fock SCF calculation will be
 performed using Pulay DIIS extrapolation
 SCF converges when DIIS error is below 1.0E-08
Finding J and K together
 Job number = 22, Threshold = 1.00E-11
Integral type ranges set in mkLRange.C for JobNum: 22  <1-6|1-6>
 MakeJK  time:  CPU       0.11 s  wall       0.11 s
Fock build time:  0.11 s (CPU) 0.11 s (wall)
DIIS Errors:  Max 1.19E+00 RMS 1.97E-01

Current DIIS subspace size = 1
REM_GRID_RESTART_DIIS = 0

 ---------------------------------------
  Cycle       Energy         DIIS Error
 ---------------------------------------
    1    -152.0703991717      1.97E-01  00000
Finding J and K together
 Job number = 22, Threshold = 1.00E-11
Integral type ranges set in mkLRange.C for JobNum: 22  <1-6|1-6>
 MakeJK  time:  CPU       0.14 s  wall       0.14 s
Fock build time:  0.14 s (CPU) 0.14 s (wall)
DIIS Errors:  Max 6.33E-02 RMS 1.37E-02

Current DIIS subspace size = 2
REM_GRID_RESTART_DIIS = 0

    2    -152.7518724840      1.37E-02  00000
Finding J and K together
 Job number = 22, Threshold = 1.00E-11
Integral type ranges set in mkLRange.C for JobNum: 22  <1-6|1-6>
 MakeJK  time:  CPU       0.12 s  wall       0.12 s
Fock build time:  0.12 s (CPU) 0.12 s (wall)
DIIS Errors:  Max 2.41E-02 RMS 4.02E-03

Current DIIS subspace size = 3
REM_GRID_RESTART_DIIS = 0

    3    -152.7830634202      4.02E-03  00000
Finding J and K together
 Job number = 22, Threshold = 1.00E-11
Integral type ranges set in mkLRange.C for JobNum: 22  <1-6|1-6>
 MakeJK  time:  CPU       0.12 s  wall       0.12 s
Fock build time:  0.12 s (CPU) 0.12 s (wall)
DIIS Errors:  Max 7.94E-03 RMS 1.51E-03

Current DIIS subspace size = 4
REM_GRID_RESTART_DIIS = 0

    4    -152.7856157058      1.51E-03  00000
Finding J and K together
 Job number = 22, Threshold = 1.00E-11
Integral type ranges set in mkLRange.C for JobNum: 22  <1-6|1-6>
 MakeJK  time:  CPU       0.14 s  wall       0.14 s
Fock build time:  0.14 s (CPU) 0.14 s (wall)
DIIS Errors:  Max 6.41E-04 RMS 1.59E-04

Current DIIS subspace size = 5
REM_GRID_RESTART_DIIS = 0

    5    -152.7858755800      1.59E-04  00000
Finding J and K together
 Job number = 22, Threshold = 1.00E-11
Integral type ranges set in mkLRange.C for JobNum: 22  <1-6|1-6>
 MakeJK  time:  CPU       0.14 s  wall       0.14 s
Fock build time:  0.14 s (CPU) 0.14 s (wall)
DIIS Errors:  Max 1.91E-04 RMS 4.08E-05

Current DIIS subspace size = 6
REM_GRID_RESTART_DIIS = 0

    6    -152.7858797259      4.08E-05  00000
Finding J and K together
 Job number = 22, Threshold = 1.00E-11
Integral type ranges set in mkLRange.C for JobNum: 22  <1-6|1-6>
 MakeJK  time:  CPU       0.12 s  wall       0.14 s
Fock build time:  0.12 s (CPU) 0.14 s (wall)
DIIS Errors:  Max 5.27E-05 RMS 1.08E-05

Current DIIS subspace size = 7
REM_GRID_RESTART_DIIS = 0

    7    -152.7858802049      1.08E-05  00000
Finding J and K together
 Job number = 22, Threshold = 1.00E-11
Integral type ranges set in mkLRange.C for JobNum: 22  <1-6|1-6>
 MakeJK  time:  CPU       0.17 s  wall       0.18 s
Fock build time:  0.17 s (CPU) 0.18 s (wall)
DIIS Errors:  Max 1.18E-05 RMS 2.53E-06

Current DIIS subspace size = 8
REM_GRID_RESTART_DIIS = 0

    8    -152.7858802334      2.53E-06  00000
Finding J and K together
 Job number = 22, Threshold = 1.00E-11
Integral type ranges set in mkLRange.C for JobNum: 22  <1-6|1-6>
 MakeJK  time:  CPU       0.17 s  wall       0.18 s
Fock build time:  0.17 s (CPU) 0.18 s (wall)
DIIS Errors:  Max 7.47E-06 RMS 1.07E-06

Current DIIS subspace size = 9
REM_GRID_RESTART_DIIS = 0

    9    -152.7858802350      1.07E-06  00000
Finding J and K together
 Job number = 22, Threshold = 1.00E-11
Integral type ranges set in mkLRange.C for JobNum: 22  <1-6|1-6>
 MakeJK  time:  CPU       0.17 s  wall       0.18 s
Fock build time:  0.17 s (CPU) 0.18 s (wall)
DIIS Errors:  Max 1.49E-06 RMS 2.89E-07

Current DIIS subspace size = 10
REM_GRID_RESTART_DIIS = 0

   10    -152.7858802352      2.89E-07  00000
Finding J and K together
 Job number = 22, Threshold = 1.00E-11
Integral type ranges set in mkLRange.C for JobNum: 22  <1-6|1-6>
 MakeJK  time:  CPU       0.17 s  wall       0.17 s
Fock build time:  0.17 s (CPU) 0.17 s (wall)
DIIS Errors:  Max 6.63E-07 RMS 9.01E-08

Current DIIS subspace size = 11
REM_GRID_RESTART_DIIS = 0

[...]
    5      C       1.9610356088     0.5339018380     0.0698193684
    6      C       0.6478850746     0.5146116732     0.4576728771
    7      H      -0.2482543844     1.0223629757     0.6332241503
    8      H       0.2900572398    -0.6645318376    -0.0062020794
    9      H       3.4534177879     1.5095497320     1.0746098208
   10      H       2.0832547648    -0.4182076366     0.6517099146
 ----------------------------------------------------------------
 Nuclear Repulsion Energy =   102.1380822906 hartrees
 There are       15 alpha and       15 beta electrons

                       Distance Matrix (Angstroms)
             C (  1)   C (  2)   H (  3)   H (  4)   C (  5)   C (  6)
   C (  2)  1.327609
   H (  3)  1.159305  2.209773
   H (  4)  1.279194  2.322114  1.857978
   C (  5)  2.575726  1.341580  3.195914  3.522202
   C (  6)  3.630955  2.545336  4.137737  4.353202  1.369367
   H (  7)  4.217853  3.320876  4.630063  4.737675  2.331734  1.044842
   H (  8)  4.532945  3.389090  4.908777  5.443399  2.057715  1.316663
   H (  9)  1.971575  1.236481  3.099949  2.433306  2.046631  3.039988
   H ( 10)  3.469741  2.147846  4.190445  4.399427  1.122518  1.722814
             H (  7)   H (  8)   H (  9)
   H (  8)  1.882620
   H (  9)  3.759594  3.987685
   H ( 10)  2.740715  1.925897  2.402590

 Applying Cartesian multipole field
    Component          Value
    ---------          -----
     (2,0,0)        1.00000E-11
     (0,2,0)        2.00000E-11
     (0,0,2)       -3.00000E-11
 Nucleus-field energy     =     0.0000000114 hartrees
 ENuRep (before)= 102.1380822906
 ENucField = 0.0000000114
 ENuRep (after) = 102.1380823020
 Job number = 2, Threshold = 1.00E-11
Integral type ranges set in mkLRange.C for JobNum: 2  <1-6|1-6>
Symmetry turned off temporarily
Symmetry turned back on
 Job number = 11, Threshold = 1.00E-11
Integral type ranges set in mkLRange.C for JobNum: 11  <1-6|7-7>
 Smallest overlap matrix eigenvalue = 1.92E-01
 Multipole matrices computed through 2nd order
 Extrapolating the Fock matrix using 12 points and a 6th-order polynomial
 Alpha Fock matrix extrapolation
 Skip SCF guess (diagonalize extrapolated Fock matrix instead)
 SCF convergence criterion is 10**(-8)
 A restricted Hartree-Fock SCF calculation will be
 performed using Pulay DIIS extrapolation
 SCF converges when DIIS error is below 1.0E-08
Extrapolated Fock matrix used in lieu of Fock build
Fock build time:  0.00 s (CPU) 0.00 s (wall)
DIIS Errors:  Max 7.04E-02 RMS 9.75E-03

Current DIIS subspace size = 1
REM_GRID_RESTART_DIIS = 0

 ---------------------------------------
  Cycle       Energy         DIIS Error
 ---------------------------------------
    1    -307.5326534521      9.75E-03  00000
Finding J and K together
 Job number = 22, Threshold = 1.00E-11
Integral type ranges set in mkLRange.C for JobNum: 22  <1-6|1-6>
 MakeJK  time:  CPU       0.17 s  wall       0.18 s
Fock build time:  0.17 s (CPU) 0.18 s (wall)
DIIS Errors:  Max 3.13E-02 RMS 2.63E-03

Current DIIS subspace size = 2
REM_GRID_RESTART_DIIS = 0

    2    -152.7305526394      2.63E-03  00000
Finding J and K together
 Job number = 22, Threshold = 1.00E-11
Integral type ranges set in mkLRange.C for JobNum: 22  <1-6|1-6>
 MakeJK  time:  CPU       0.15 s  wall       0.15 s
Fock build time:  0.15 s (CPU) 0.15 s (wall)
DIIS Errors:  Max 5.38E-03 RMS 4.71E-04

Current DIIS subspace size = 3
REM_GRID_RESTART_DIIS = 0

    3    -152.7306979484      4.71E-04  00000
Finding J and K together
 Job number = 22, Threshold = 1.00E-11
Integral type ranges set in mkLRange.C for JobNum: 22  <1-6|1-6>
 MakeJK  time:  CPU       0.18 s  wall       0.18 s
Fock build time:  0.18 s (CPU) 0.18 s (wall)
DIIS Errors:  Max 4.12E-04 RMS 4.82E-05

Current DIIS subspace size = 4
REM_GRID_RESTART_DIIS = 0

    4    -152.7307069099      4.82E-05  00000
Finding J and K together
 Job number = 22, Threshold = 1.00E-11
Integral type ranges set in mkLRange.C for JobNum: 22  <1-6|1-6>
 MakeJK  time:  CPU       0.18 s  wall       0.18 s
Fock build time:  0.18 s (CPU) 0.18 s (wall)
DIIS Errors:  Max 1.91E-04 RMS 1.93E-05

Current DIIS subspace size = 5
REM_GRID_RESTART_DIIS = 0

    5    -152.7307073364      1.93E-05  00000
Finding J and K together
 Job number = 22, Threshold = 1.00E-11
Integral type ranges set in mkLRange.C for JobNum: 22  <1-6|1-6>
 MakeJK  time:  CPU       0.18 s  wall       0.18 s
Fock build time:  0.18 s (CPU) 0.18 s (wall)
DIIS Errors:  Max 4.61E-05 RMS 6.71E-06

Current DIIS subspace size = 6
REM_GRID_RESTART_DIIS = 0

    6    -152.7307074386      6.71E-06  00000
Finding J and K together
 Job number = 22, Threshold = 1.00E-11
Integral type ranges set in mkLRange.C for JobNum: 22  <1-6|1-6>
 MakeJK  time:  CPU       0.19 s  wall       0.25 s
Fock build time:  0.19 s (CPU) 0.25 s (wall)
DIIS Errors:  Max 1.69E-05 RMS 2.34E-06

Current DIIS subspace size = 7
REM_GRID_RESTART_DIIS = 0

    7    -152.7307074482      2.34E-06  00000
Finding J and K together
 Job number = 22, Threshold = 1.00E-11
Integral type ranges set in mkLRange.C for JobNum: 22  <1-6|1-6>
 MakeJK  time:  CPU       0.19 s  wall       0.22 s
Fock build time:  0.19 s (CPU) 0.22 s (wall)
DIIS Errors:  Max 6.26E-06 RMS 8.69E-07

Current DIIS subspace size = 8
REM_GRID_RESTART_DIIS = 0

    8    -152.7307074492      8.69E-07  00000
Finding J and K together
 Job number = 22, Threshold = 1.00E-11
Integral type ranges set in mkLRange.C for JobNum: 22  <1-6|1-6>
 MakeJK  time:  CPU       0.20 s  wall       0.21 s
Fock build time:  0.20 s (CPU) 0.21 s (wall)
DIIS Errors:  Max 1.12E-06 RMS 2.46E-07

Current DIIS subspace size = 9
REM_GRID_RESTART_DIIS = 0

    9    -152.7307074493      2.46E-07  00000
Finding J and K together
 Job number = 22, Threshold = 1.00E-11
Integral type ranges set in mkLRange.C for JobNum: 22  <1-6|1-6>
 MakeJK  time:  CPU       0.19 s  wall       0.20 s
Fock build time:  0.19 s (CPU) 0.20 s (wall)
DIIS Errors:  Max 3.59E-07 RMS 7.20E-08

Current DIIS subspace size = 10
REM_GRID_RESTART_DIIS = 0

   10    -152.7307074494      7.20E-08  00000
Finding J and K together
 Job number = 22, Threshold = 1.00E-11
Integral type ranges set in mkLRange.C for JobNum: 22  <1-6|1-6>
 MakeJK  time:  CPU       0.20 s  wall       0.21 s
Fock build time:  0.20 s (CPU) 0.21 s (wall)
DIIS Errors:  Max 1.02E-07 RMS 1.89E-08

Current DIIS subspace size = 11
REM_GRID_RESTART_DIIS = 0

   11    -152.7307074494      1.89E-08  00000
Finding J and K together
 Job number = 22, Threshold = 1.00E-11
Integral type ranges set in mkLRange.C for JobNum: 22  <1-6|1-6>
 MakeJK  time:  CPU       0.18 s  wall       0.18 s
Fock build time:  0.18 s (CPU) 0.18 s (wall)
DIIS Errors:  Max 2.61E-08 RMS 4.85E-09

Current DIIS subspace size = 12
REM_GRID_RESTART_DIIS = 0

   12    -152.7307074494      4.85E-09  00000 Convergence criterion met
 ---------------------------------------
 SCF time:  CPU 2.03 s  wall 2.18 s
 SCF   energy in the final basis set = -152.73070745
 Total energy in the final basis set = -152.73070745
drvman_main.C: 73: calling DrvMan  Calculating analytic gradient of the SCF energy
drvman.C : 218: Calculating analytic gradient of the SCF energy
drvman.C: 244: calling SCF_Grad for normal SCF gradient
 Job number = 111, Threshold = 1.00E-11
Integral type ranges set in mkLRange.C for JobNum: 11  <1-6|7-7>
Finding J and K together
 ML is being used
 Job number = 122, Threshold = 1.00E-11
Integral type ranges set in mkLRange.C for JobNum: 22  <1-6|1-6>
 MakeJK  time:  CPU       0.51 s  wall       0.55 s
 Gradient of SCF Energy
            1           2           3           4           5           6
    1   0.0522578  -0.1553136  -0.0029051  -0.0232790   0.1456983  -0.0016899
    2  -0.1240003  -0.1626789   0.0330900   0.1163653   0.1296378   0.1403091
    3   0.0607512  -0.1385658  -0.0424997   0.0216884  -0.0564258   0.1091842
            7           8           9          10
    1   0.0190999  -0.0184729   0.0358314  -0.0512270
    2  -0.0566192  -0.0938726   0.0144983   0.0032705
    3   0.0060818  -0.0792850   0.0642645   0.0548061
 Max gradient component =       1.627E-01
 RMS gradient           =       8.410E-02
drvman.C: 248: out of SCF_Grad for normal SCF gradient
 Gradient time:  CPU 0.53 s  wall 0.57 s
 ------------------------------------------------------------------------------
                     drvman        : Timing summary (seconds)
 ------------------------------------------------------------------------------
     job step          cpu (% of tot)      sys (% of tot)     wall (% of tot)
 ------------------------------------------------------------------------------
 ------------------------------------------------------------------------------
   Grand Totals     0.5280E+00          0.4000E-05          0.5705E+00
 ------------------------------------------------------------------------------
drvman_main.C: 77: out of DrvMan  Time for this dynamics step: 2.6 s (CPU) 2.8 s (wall)

TIME STEP #400 (t = 7980.000 a.u. = 193.02697 fs)
--------------------------------------
 Instantaneous Temperature = 7338.4 K
 ----------------------------------------------------------------
             Standard Nuclear Orientation (Angstroms)
    I     Atom           X                Y                Z
 ----------------------------------------------------------------
    1      C       3.4834368350     2.4656522789    -0.6475589086
    2      C       2.9825076562     1.4151941630    -0.0684882212
    3      H       3.3520138514     2.7908527561    -1.6634594430
    4      H       3.6534774973     3.5147594507    -0.1472256635
    5      C       1.9618318474     0.5390874198     0.0715477732
    6      C       0.6519249810     0.5035909708     0.4540780692
    7      H      -0.1901694524     1.0922895578     0.6193826033
    8      H       0.2977644332    -0.6772875451     0.0461238559
    9      H       3.4134608909     1.5070201383     1.0936236496
   10      H       2.0865459301    -0.4115752362     0.6736303650
 ----------------------------------------------------------------
 Nuclear Repulsion Energy =   103.1412630147 hartrees
 There are       15 alpha and       15 beta electrons

                       Distance Matrix (Angstroms)
             C (  1)   C (  2)   H (  3)   H (  4)   C (  5)   C (  6)
   C (  2)  1.299890
   H (  3)  1.074747  2.138435
   H (  4)  1.174680  2.205578  1.707011
   C (  5)  2.558134  1.352388  3.164380  3.429891
   C (  6)  3.616732  2.556504  4.123835  4.293951  1.365081
   H (  7)  4.121486  3.262409  4.543517  4.607567  2.288507  1.040680
   H (  8)  4.528551  3.405798  4.927384  5.373216  2.061391  1.298588
   H (  9)  1.988866  1.242842  3.041958  2.372411  2.022068  3.006987
   H ( 10)  3.460532  2.165773  4.161603  4.306412  1.132173  1.715771
             H (  7)   H (  8)   H (  9)
   H (  8)  1.923047
   H (  9)  3.658286  3.946647
   H ( 10)  2.729100  1.914186  2.370254

 Applying Cartesian multipole field
    Component          Value
    ---------          -----
     (2,0,0)        1.00000E-11
     (0,2,0)        2.00000E-11
     (0,0,2)       -3.00000E-11
 Nucleus-field energy     =     0.0000000114 hartrees
 ENuRep (before)= 103.1412630147
 ENucField = 0.0000000114
 ENuRep (after) = 103.1412630260
 Job number = 2, Threshold = 1.00E-11
Integral type ranges set in mkLRange.C for JobNum: 2  <1-6|1-6>
Symmetry turned off temporarily
Symmetry turned back on
 Job number = 11, Threshold = 1.00E-11
Integral type ranges set in mkLRange.C for JobNum: 11  <1-6|7-7>
 Smallest overlap matrix eigenvalue = 1.81E-01
 Multipole matrices computed through 2nd order
 Extrapolating the Fock matrix using 12 points and a 6th-order polynomial
 Alpha Fock matrix extrapolation
 Skip SCF guess (diagonalize extrapolated Fock matrix instead)
 SCF convergence criterion is 10**(-8)
 A restricted Hartree-Fock SCF calculation will be
 performed using Pulay DIIS extrapolation
 SCF converges when DIIS error is below 1.0E-08
Extrapolated Fock matrix used in lieu of Fock build
Fock build time:  0.00 s (CPU) 0.00 s (wall)
DIIS Errors:  Max 8.48E-02 RMS 1.11E-02

Current DIIS subspace size = 1
REM_GRID_RESTART_DIIS = 0

 ---------------------------------------
  Cycle       Energy         DIIS Error
 ---------------------------------------
    1    -308.4827400710      1.11E-02  00000
Finding J and K together
 Job number = 22, Threshold = 1.00E-11
Integral type ranges set in mkLRange.C for JobNum: 22  <1-6|1-6>
 MakeJK  time:  CPU       0.20 s  wall       0.20 s
Fock build time:  0.20 s (CPU) 0.20 s (wall)
DIIS Errors:  Max 1.71E-02 RMS 1.90E-03

Current DIIS subspace size = 2
REM_GRID_RESTART_DIIS = 0

    2    -152.7685832605      1.90E-03  00000
Finding J and K together
 Job number = 22, Threshold = 1.00E-11
Integral type ranges set in mkLRange.C for JobNum: 22  <1-6|1-6>
 MakeJK  time:  CPU       0.20 s  wall       0.20 s
Fock build time:  0.20 s (CPU) 0.20 s (wall)
DIIS Errors:  Max 1.73E-03 RMS 2.19E-04

Current DIIS subspace size = 3
REM_GRID_RESTART_DIIS = 0

    3    -152.7686547653      2.19E-04  00000
Finding J and K together
 Job number = 22, Threshold = 1.00E-11
Integral type ranges set in mkLRange.C for JobNum: 22  <1-6|1-6>
 MakeJK  time:  CPU       0.20 s  wall       0.20 s
Fock build time:  0.20 s (CPU) 0.20 s (wall)
DIIS Errors:  Max 1.88E-04 RMS 3.26E-05

Current DIIS subspace size = 4
REM_GRID_RESTART_DIIS = 0

    4    -152.7686573561      3.26E-05  00000
Finding J and K together
 Job number = 22, Threshold = 1.00E-11
Integral type ranges set in mkLRange.C for JobNum: 22  <1-6|1-6>
 MakeJK  time:  CPU       0.17 s  wall       0.17 s
Fock build time:  0.17 s (CPU) 0.17 s (wall)
DIIS Errors:  Max 1.03E-04 RMS 1.61E-05

Current DIIS subspace size = 5
REM_GRID_RESTART_DIIS = 0

    5    -152.7686575450      1.61E-05  00000
Finding J and K together
 Job number = 22, Threshold = 1.00E-11
Integral type ranges set in mkLRange.C for JobNum: 22  <1-6|1-6>
 MakeJK  time:  CPU       0.19 s  wall       0.19 s
Fock build time:  0.20 s (CPU) 0.19 s (wall)
DIIS Errors:  Max 2.34E-05 RMS 4.27E-06

Current DIIS subspace size = 6
REM_GRID_RESTART_DIIS = 0

    6    -152.7686575989      4.27E-06  00000
Finding J and K together
 Job number = 22, Threshold = 1.00E-11
Integral type ranges set in mkLRange.C for JobNum: 22  <1-6|1-6>
 MakeJK  time:  CPU       0.19 s  wall       0.19 s
Fock build time:  0.19 s (CPU) 0.19 s (wall)
DIIS Errors:  Max 5.87E-06 RMS 1.20E-06

Current DIIS subspace size = 7
REM_GRID_RESTART_DIIS = 0

    7    -152.7686576041      1.20E-06  00000
Finding J and K together
 Job number = 22, Threshold = 1.00E-11
Integral type ranges set in mkLRange.C for JobNum: 22  <1-6|1-6>
 MakeJK  time:  CPU       0.19 s  wall       0.19 s
Fock build time:  0.19 s (CPU) 0.19 s (wall)
DIIS Errors:  Max 3.78E-06 RMS 4.73E-07

Current DIIS subspace size = 8
REM_GRID_RESTART_DIIS = 0

    8    -152.7686576046      4.73E-07  00000
Finding J and K together
 Job number = 22, Threshold = 1.00E-11
Integral type ranges set in mkLRange.C for JobNum: 22  <1-6|1-6>
 MakeJK  time:  CPU       0.19 s  wall       0.19 s
Fock build time:  0.19 s (CPU) 0.19 s (wall)
DIIS Errors:  Max 1.34E-06 RMS 1.87E-07

Current DIIS subspace size = 9
REM_GRID_RESTART_DIIS = 0

    9    -152.7686576046      1.87E-07  00000
Finding J and K together
 Job number = 22, Threshold = 1.00E-11
Integral type ranges set in mkLRange.C for JobNum: 22  <1-6|1-6>
 MakeJK  time:  CPU       0.20 s  wall       0.20 s
Fock build time:  0.20 s (CPU) 0.20 s (wall)
DIIS Errors:  Max 4.47E-07 RMS 5.95E-08

Current DIIS subspace size = 10
REM_GRID_RESTART_DIIS = 0

   10    -152.7686576046      5.95E-08  00000
Finding J and K together
 Job number = 22, Threshold = 1.00E-11
Integral type ranges set in mkLRange.C for JobNum: 22  <1-6|1-6>
 MakeJK  time:  CPU       0.17 s  wall       0.17 s
Fock build time:  0.17 s (CPU) 0.17 s (wall)
DIIS Errors:  Max 4.67E-08 RMS 1.08E-08

Current DIIS subspace size = 11
REM_GRID_RESTART_DIIS = 0

   11    -152.7686576046      1.08E-08  00000
Finding J and K together
 Job number = 22, Threshold = 1.00E-11
Integral type ranges set in mkLRange.C for JobNum: 22  <1-6|1-6>
 MakeJK  time:  CPU       0.19 s  wall       0.19 s
Fock build time:  0.19 s (CPU) 0.19 s (wall)
DIIS Errors:  Max 1.57E-08 RMS 2.64E-09

Current DIIS subspace size = 12
REM_GRID_RESTART_DIIS = 0

   12    -152.7686576046      2.64E-09  00000 Convergence criterion met
 ---------------------------------------
 SCF time:  CPU 2.11 s  wall 2.14 s
 SCF   energy in the final basis set = -152.76865760
 Total energy in the final basis set = -152.76865760
drvman_main.C: 73: calling DrvMan  Calculating analytic gradient of the SCF energy
drvman.C : 218: Calculating analytic gradient of the SCF energy
drvman.C: 244: calling SCF_Grad for normal SCF gradient
 Job number = 111, Threshold = 1.00E-11
Integral type ranges set in mkLRange.C for JobNum: 11  <1-6|7-7>
Finding J and K together
 ML is being used
 Job number = 122, Threshold = 1.00E-11
Integral type ranges set in mkLRange.C for JobNum: 22  <1-6|1-6>
 MakeJK  time:  CPU       0.50 s  wall       0.51 s
 Gradient of SCF Energy
            1           2           3           4           5           6
    1   0.0223905  -0.1175863   0.0119236  -0.0284644   0.1321528  -0.0082698
    2  -0.1065698  -0.1164963   0.0217644   0.0771915   0.1357829   0.1285833
    3   0.0327332  -0.1600974   0.0210071  -0.0008270  -0.0564207   0.1004136
            7           8           9          10
    1   0.0254614  -0.0147859   0.0301235  -0.0529455
    2  -0.0502776  -0.0971294   0.0090888  -0.0019379
    3   0.0081044  -0.0729785   0.0703385   0.0577267
 Max gradient component =       1.601E-01
 RMS gradient           =       7.524E-02
drvman.C: 248: out of SCF_Grad for normal SCF gradient
 Gradient time:  CPU 0.52 s  wall 0.53 s
 ------------------------------------------------------------------------------
                     drvman        : Timing summary (seconds)
 ------------------------------------------------------------------------------
     job step          cpu (% of tot)      sys (% of tot)     wall (% of tot)
 ------------------------------------------------------------------------------
 ------------------------------------------------------------------------------
   Grand Totals     0.5240E+00          0.3000E-05          0.5278E+00
 ------------------------------------------------------------------------------
drvman_main.C: 77: out of DrvMan  Time for this dynamics step: 2.7 s (CPU) 2.7 s (wall)

=============== TIME STEPS COMPLETED ==================

Step-to-Step energy fluctuations, |E(n) - E(n-1)|
Mean: -5.609e-06   Max: 1.154e-02   RMS: 1.371e-03
Overall energy fluctuations, |E(n) - E(0)|
Mean: -2.021e-03   Max: 1.041e-02   RMS: 1.512e-03   RMS(dE)/RMS(dV): 1.945e-02
Kinetic energy fluctuations, |T(n) - V(0)|
Mean: 2.856e-01   Max: 5.003e-01   RMS: 7.676e-02
Potential energy fluctuations, |V(n) - V(0)|
Mean: -2.876e-01   Max: 5.081e-01   RMS: 7.775e-02


 JobOver = TRUE
Archival summary:
1\1\qciep03\JobtypUnspecified\HF\STO-3G\46\jcartus\MonJun1812:09:512018MonJun1812:09:512018\0\\#,JobtypUnspecified,HF,STO-3G,\\0,1\C\H,1,1.24284\C,1,1.29989,2,102.898\H,3,1.07475,1,128.205,2,-178.935,0\H,3,1.17468,1,125.999,2,-35.0456,0\C,1,1.35239,2,102.283,3,-162.419,0\H,6,1.13217,1,121.057,2,-45.838,0\C,6,1.36508,1,140.361,2,81.5874,0\H,8,1.04068,6,143.733,1,17.3477,0\H,8,1.29859,6,101.38,1,167.446,0\\HF=-152.768658\\@

 Total job time:  981.86s(wall), 960.73s(cpu) 
 Mon Jun 18 12:09:51 2018

        *************************************************************
        *                                                           *
        *  Thank you very much for using Q-Chem.  Have a nice day.  *
        *                                                           *
        *************************************************************


*** MISSION COMPLETED -- STARFLEET OUT ***

0 sent ACK to 0 
now end server 0 ... 
