Process 0 of 1 is on qciep03 - thread support 0
initial socket setup ...start
initial socket setup ...done 
now start server 0 ... 
qciep03.tugraz.at 127.0.1
Q-Chem Developer Version! Running on 127.0.1.*
                  Welcome to Q-Chem
     A Quantum Leap Into The Future Of Chemistry


 Q-Chem 5.0, Q-Chem, Inc., Pleasanton, CA (2017)

 Yihan Shao,  Zhengting Gan,  E. Epifanovsky,  A. T. B. Gilbert,  M. Wormit,  
 J. Kussmann,  A. W. Lange,  A. Behn,  Jia Deng,  Xintian Feng,  D. Ghosh,  
 M. Goldey,  P. R. Horn,  L. D. Jacobson,  I. Kaliman,  T. Kus,  A. Landau,  
 Jie Liu,  E. I. Proynov,  R. M. Richard,  R. P. Steele,  E. J. Sundstrom,  
 H. L. Woodcock III,  P. M. Zimmerman,  D. Zuev,  B. Albrecht,  E. Alguire,  
 S. A. Baeppler,  D. Barton,  Z. Benda,  Y. A. Bernard,  E. J. Berquist,  
 K. B. Bravaya,  H. Burton,  D. Casanova,  Chun-Min Chang,  Yunqing Chen,  
 A. Chien,  K. D. Closser,  M. P. Coons,  S. Dasgupta,  A. L. Dempwolff,  
 M. Diedenhofen,  Hainam Do,  R. G. Edgar,  Po-Tung Fang,  S. Fatehi,  
 Qingguo Feng,  J. Fosso-Tande,  Qinghui Ge,  A. Ghysels,  G. Gidofalvi,  
 J. Gomes,  J. Gonthier,  A. Gunina,  M. W. D. Hanson-Heine,  
 P. H. P. Harbach,  A. W. Hauser,  J. E. Herr,  E. G. Hohenstein,  
 Z. C. Holden,  Kerwin Hui,  T.-C. Jagau,  Hyunjun Ji,  B. Kaduk,  
 K. Khistyaev,  Jaehoon Kim,  P. Klunzinger,  K. Koh,  D. Kosenkov,  
 L. Koulias,  T. Kowalczyk,  C. M. Krauter,  A. Kunitsa,  Ka Un Lao,  
 A. Laurent,  K. V. Lawler,  Joonho Lee,  D. Lefrancois,  S. Lehtola,  
 D. S. Levine,  Yi-Pei Li,  You-Sheng Lin,  Fenglai Liu,  E. Livshits,  
 A. Luenser,  P. Manohar,  E. Mansoor,  S. F. Manzer,  Shan-Ping Mao,  
 Yuezhi Mao,  N. Mardirossian,  A. V. Marenich,  T. Markovich,  
 L. A. Martinez-Martinez,  S. A. Maurer,  N. J. Mayhall,  S. C. McKenzie,  
 J.-M. Mewes,  A. F. Morrison,  J. W. Mullinax,  K. Nanda,  
 T. S. Nguyen-Beck,  R. Olivares-Amaya,  J. A. Parkhill,  T. M. Perrine,  
 F. Plasser,  S. Prager,  A. Prociuk,  E. Ramos,  D. R. Rehn,  F. Rob,  
 M. Schneider,  N. Sergueev,  S. M. Sharada,  S. Sharma,  D. W. Small,  
 T. Stauch,  T. Stein,  Yu-Chuan Su,  A. J. W. Thom,  A. Tkatchenko,  
 T. Tsuchimochi,  L. Vogt,  O. Vydrov,  M. A. Watson,  J. Wenzel,  
 M. de Wergifosse,  T. A. Wesolowski,  A. White,  J. Witte,  A. Yamada,  
 Jun Yang,  K. Yao,  S. Yeganeh,  S. R. Yost,  Zhi-Qiang You,  A. Zech,  
 Igor Ying Zhang,  Xing Zhang,  Yan Zhao,  Ying Zhu,  B. R. Brooks,  
 G. K. L. Chan,  C. J. Cramer,  M. S. Gordon,  W. J. Hehre,  A. Klamt,  
 M. W. Schmidt,  C. D. Sherrill,  D. G. Truhlar,  A. Aspuru-Guzik,  R. Baer,  
 A. T. Bell,  N. A. Besley,  Jeng-Da Chai,  R. A. DiStasio Jr.,  A. Dreuw,  
 B. D. Dunietz,  T. R. Furlani,  Chao-Ping Hsu,  Yousung Jung,  Jing Kong,  
 D. S. Lambrecht,  WanZhen Liang,  C. Ochsenfeld,  V. A. Rassolov,  
 L. V. Slipchenko,  J. E. Subotnik,  T. Van Voorhis,  J. M. Herbert,  
 A. I. Krylov,  P. M. W. Gill,  M. Head-Gordon

 Contributors to earlier versions of Q-Chem not listed above: 
 R. D. Adamson,  B. Austin,  J. Baker,  G. J. O. Beran,  K. Brandhorst,  
 S. T. Brown,  E. F. C. Byrd,  A. K. Chakraborty,  C.-L. Cheng,  
 Siu Hung Chien,  D. M. Chipman,  D. L. Crittenden,  H. Dachsel,  
 R. J. Doerksen,  A. D. Dutoi,  L. Fusti-Molnar,  W. A. Goddard III,  
 A. Golubeva-Zadorozhnaya,  S. R. Gwaltney,  G. Hawkins,  A. Heyden,  
 S. Hirata,  G. Kedziora,  F. J. Keil,  C. Kelley,  Jihan Kim,  R. A. King,  
 R. Z. Khaliullin,  P. P. Korambath,  W. Kurlancheek,  A. M. Lee,  M. S. Lee,  
 S. V. Levchenko,  Ching Yeh Lin,  D. Liotard,  R. C. Lochan,  I. Lotan,  
 P. E. Maslen,  N. Nair,  D. P. O'Neill,  D. Neuhauser,  E. Neuscamman,  
 C. M. Oana,  R. Olson,  B. Peters,  R. Peverati,  P. A. Pieniazek,  
 Y. M. Rhee,  J. Ritchie,  M. A. Rohrdanz,  E. Rosta,  N. J. Russ,  
 H. F. Schaefer III,  N. E. Schultz,  N. Shenvi,  A. C. Simmonett,  A. Sodt,  
 D. Stuck,  K. S. Thanthiriwatte,  V. Vanovschi,  Tao Wang,  A. Warshel,  
 C. F. Williams,  Q. Wu,  X. Xu,  W. Zhang

 Please cite Q-Chem as follows:
 Y. Shao et al., Mol. Phys. 113, 184-215 (2015)
 DOI: 10.1080/00268976.2014.952696

 Q-Chem 5.0.2 for Intel X86 EM64T Linux

 Parts of Q-Chem use Armadillo 5.200.1 (Boston Tea Smuggler).
 http://arma.sourceforge.net/

 Q-Chem begins on Mon Jun 18 11:53:30 2018  


Host: 0

     Scratch files written to /home/jcartus/scratch/Butadien_6.mol.dir//
 Using version located at /usr/local/qchem/bin/qchem

 Parallel job on  1  processors
Symmetry disabled for AIMD jobs.

Total Memory Limit in MB = 2000
Mega-Array Size in MB = 192

Checking the input file for inconsistencies... 	...done.
Finally everything over in PARseQInput

--------------------------------------------------------------
User input:
--------------------------------------------------------------
$rem
AIMD_STEPS                    400
FOCK_EXTRAP_POINTS            12
MAX_SCF_CYCLES                100
BASIS                         sto-3g
AIMD_INIT_VELOC               thermal
FOCK_EXTRAP_ORDER             6
AIMD_TEMP                     400
AIMD_METHOD                   bomd
TIME_STEP                     20
METHOD                        hf
JOBTYPE                       aimd
$end

$molecule
0 1
C    5.35102    -0.89393    -0.59185
C    4.34003    -0.02581    -0.71219
H    6.27291    -0.60008    -0.10005
H    5.28753    -1.91089    -0.96529
C    3.09262    -0.36040    -1.35253
C    2.04771    0.47471    -1.39140
H    1.12608    0.18028    -1.88332
H    2.07595    1.45775    -0.93260
H    4.45451    0.97924    -0.31161
H    3.00629    -1.33820    -1.82178
$end


--------------------------------------------------------------
 ----------------------------------------------------------------
             Standard Nuclear Orientation (Angstroms)
    I     Atom           X                Y                Z
 ----------------------------------------------------------------
    1      C       5.3510200000    -0.8939300000    -0.5918500000
    2      C       4.3400300000    -0.0258100000    -0.7121900000
    3      H       6.2729100000    -0.6000800000    -0.1000500000
    4      H       5.2875300000    -1.9108900000    -0.9652900000
    5      C       3.0926200000    -0.3604000000    -1.3525300000
    6      C       2.0477100000     0.4747100000    -1.3914000000
    7      H       1.1260800000     0.1802800000    -1.8833200000
    8      H       2.0759500000     1.4577500000    -0.9326000000
    9      H       4.4545100000     0.9792400000    -0.3116100000
   10      H       3.0062900000    -1.3382000000    -1.8217800000
 ----------------------------------------------------------------
 Nuclear Repulsion Energy =   104.1594429525 hartrees
 There are       15 alpha and       15 beta electrons
 Requested basis set is STO-3G
 There are 14 shells and 26 basis functions

 Total QAlloc Memory Limit   2000 MB
 Mega-Array Size       188 MB
 MEM_STATIC part       192 MB

finished with qalloc call

                       Distance Matrix (Angstroms)
             C (  1)   C (  2)   H (  3)   H (  4)   C (  5)   C (  6)
   C (  2)  1.337989
   H (  3)  1.085401  2.107256
   H (  4)  1.085217  2.124934  1.854140
   C (  5)  2.442060  1.441533  3.426426  2.715070
   C (  6)  3.663920  2.442658  4.546985  4.045873  1.338192
   H (  7)  4.546641  3.426878  5.502624  4.746940  2.107452  1.085392
   H (  8)  4.046306  2.715804  4.747871  4.654358  2.125001  1.085202
   H (  9)  2.095479  1.087978  2.417765  3.077998  2.175522  2.685737
   H ( 10)  2.684746  2.175413  3.765632  2.503119  1.087999  2.095411
             H (  7)   H (  8)   H (  9)
   H (  8)  1.854198
   H (  9)  3.766571  2.504426
   H ( 10)  2.417593  3.077907  3.122256

 Job number = 2, Threshold = 1.00E-11
Integral type ranges set in mkLRange.C for JobNum: 2  <1-6|1-6>
Symmetry turned off temporarily
 Using the largest function pair in Schwarz integrals
Total number of integrals generated =            3252
Symmetry turned back on
 A cutoff of  1.0D-11 yielded    102 shell pairs
 There are       372 function pairs
 Job number = 11, Threshold = 1.00E-11
Integral type ranges set in mkLRange.C for JobNum: 11  <1-6|7-7>
Total number of integrals generated =            3720
 Smallest overlap matrix eigenvalue = 1.84E-01
 Multipole matrices computed through 2nd order

 Scale SEOQF with 1.000000e-02/1.000000e-01/1.000000e-01

 Standard Electronic Orientation quadrupole field applied
 Nucleus-field energy     =    -0.0000000011 hartrees
 ENuRep (before)= 104.1594429525
 ENucField = -0.0000000011
 ENuRep (after) = 104.1594429514
 Guess from superposition of atomic densities
 Warning:  Energy on first SCF cycle will be non-variational
 SAD guess density has 30.000000 electrons

 ==================================================
    GEN_SCFMAN: A general SCF calculation manager  
                                                   
    Authors:                                       
        -- Eric Jon Sundstrom 2008-2014            
        -- Paul Horn 2010-2015                     
        -- Yuezhi Mao 2012-                        
        -- Dmitri Zuev 2014                        
        -- Alec White 2015-                        
        -- David Stuck 2015                        
        -- Shaama M.S. 2015                        
        -- Shane Yost 2015-                         
        -- Joonho Lee 2016-                        
        -- David Small 2016-                       
        -- Daniel Levine 2016-                     
        -- Susi Lehtola 2017-                      
        -- Hugh Burton 2017-                       
 ==================================================
 Hartree-Fock
Finding J and K together
 Job number = 22, Threshold = 1.00E-11
Integral type ranges set in mkLRange.C for JobNum: 22  <1-6|1-6>
 MakeJK  time:  CPU       0.13 s  wall       0.13 s
 A restricted SCF calculation will be
 performed using DIIS
 SCF converges when DIIS error is below 1.0e-08
 ---------------------------------------
  Cycle       Energy         DIIS error
 ---------------------------------------
Finding J and K together
 Job number = 22, Threshold = 1.00E-11
Integral type ranges set in mkLRange.C for JobNum: 22  <1-6|1-6>
 MakeJK  time:  CPU       0.16 s  wall       0.16 s
    1    -152.6464194360      2.15e-01  
Finding J and K together
 Job number = 22, Threshold = 1.00E-11
Integral type ranges set in mkLRange.C for JobNum: 22  <1-6|1-6>
 MakeJK  time:  CPU       0.10 s  wall       0.11 s
    2    -152.9902894669      1.29e-02  
Finding J and K together
 Job number = 22, Threshold = 1.00E-11
Integral type ranges set in mkLRange.C for JobNum: 22  <1-6|1-6>
 MakeJK  time:  CPU       0.11 s  wall       0.11 s
    3    -153.0144096996      3.50e-03  
Finding J and K together
 Job number = 22, Threshold = 1.00E-11
Integral type ranges set in mkLRange.C for JobNum: 22  <1-6|1-6>
 MakeJK  time:  CPU       0.11 s  wall       0.11 s
    4    -153.0161982125      1.29e-03  
Finding J and K together
 Job number = 22, Threshold = 1.00E-11
Integral type ranges set in mkLRange.C for JobNum: 22  <1-6|1-6>
 MakeJK  time:  CPU       0.11 s  wall       0.12 s
    5    -153.0163704225      9.61e-05  
Finding J and K together
 Job number = 22, Threshold = 1.00E-11
Integral type ranges set in mkLRange.C for JobNum: 22  <1-6|1-6>
 MakeJK  time:  CPU       0.11 s  wall       0.11 s
    6    -153.0163736199      1.29e-05  
Finding J and K together
 Job number = 22, Threshold = 1.00E-11
Integral type ranges set in mkLRange.C for JobNum: 22  <1-6|1-6>
 MakeJK  time:  CPU       0.11 s  wall       0.11 s
    7    -153.0163736802      1.49e-06  
Finding J and K together
 Job number = 22, Threshold = 1.00E-11
Integral type ranges set in mkLRange.C for JobNum: 22  <1-6|1-6>
 MakeJK  time:  CPU       0.11 s  wall       0.11 s
    8    -153.0163736807      1.21e-07  
Finding J and K together
 Job number = 22, Threshold = 1.00E-11
Integral type ranges set in mkLRange.C for JobNum: 22  <1-6|1-6>
 MakeJK  time:  CPU       0.14 s  wall       0.14 s
    9    -153.0163736807      4.03e-08  
Finding J and K together
 Job number = 22, Threshold = 1.00E-11
Integral type ranges set in mkLRange.C for JobNum: 22  <1-6|1-6>
 MakeJK  time:  CPU       0.13 s  wall       0.15 s
   10    -153.0163736807      1.79e-08  
   11    -153.0163736807      3.21e-09  Convergence criterion met
 ---------------------------------------
 SCF time:   CPU 1.34s  wall 1.00s 
 Total energy in the final basis set =     -153.0163736807
Wall  1 = 1
Clock 1 = 1.3394860029
 ==================================================
                  Done GEN_SCFMAN                  
 ==================================================

Symmetry turned off temporarily

 --------------------------------------------------------------

                    Orbital Energies (a.u.)
 --------------------------------------------------------------

 Alpha MOs
 -- Occupied --
-11.030 -11.030 -11.016 -11.016  -1.036  -0.942  -0.772  -0.708
 -0.591  -0.591  -0.499  -0.491  -0.443  -0.398  -0.261
 -- Virtual --
  0.243   0.420   0.593   0.674   0.684   0.697   0.699   0.880
  0.910   1.025   1.077
 --------------------------------------------------------------

          Ground-State Mulliken Net Atomic Charges

     Atom                 Charge (a.u.)
  ----------------------------------------
      1 C                    -0.124620
      2 C                    -0.059624
      3 H                     0.060916
      4 H                     0.060794
      5 C                    -0.059576
      6 C                    -0.124652
      7 H                     0.060921
      8 H                     0.060767
      9 H                     0.062560
     10 H                     0.062513
  ----------------------------------------
  Sum of atomic charges =    -0.000000

 -----------------------------------------------------------------
                    Cartesian Multipole Moments
 -----------------------------------------------------------------
    Charge (ESU x 10^10)
                -0.0000
    Dipole Moment (Debye)
         X      -0.0022      Y      -0.0028      Z       0.0066
       Tot       0.0075
    Quadrupole Moments (Debye-Ang)
        XX     -23.0190     XY      -0.2312     YY     -22.4745
        XZ       0.8112     YZ       0.9733     ZZ     -24.4554
    Octopole Moments (Debye-Ang^2)
       XXX    -256.0255    XXY       3.0539    XYY     -83.1380
       YYY      13.5366    XXZ      29.2703    XYZ       3.5435
       YYZ      22.4094    XZZ     -92.2720    YZZ       2.9293
       ZZZ      74.0242
    Hexadecapole Moments (Debye-Ang^3)
      XXXX   -2175.8726   XXXY      86.2193   XXYY    -370.4609
      XYYY      90.9216   YYYY     -86.5003   XXXZ     263.1799
      XXYZ      10.2689   XYYZ      69.6710   YYYZ      -6.9364
      XXZZ    -426.2846   XYZZ      26.5753   YYZZ     -45.8877
      XZZZ     238.8930   YZZZ      -7.1176   ZZZZ    -198.1100
 -----------------------------------------------------------------
drvman_main.C: 73: calling DrvMan  Calculating analytic gradient of the SCF energy
drvman.C : 218: Calculating analytic gradient of the SCF energy
drvman.C: 244: calling SCF_Grad for normal SCF gradient
 Job number = 111, Threshold = 1.00E-11
Integral type ranges set in mkLRange.C for JobNum: 11  <1-6|7-7>
Finding J and K together
 ML is being used
 Job number = 122, Threshold = 1.00E-11
Integral type ranges set in mkLRange.C for JobNum: 22  <1-6|1-6>
Total number of integrals generated =           70478
 MakeJK  time:  CPU       0.37 s  wall       0.41 s
 Gradient of SCF Energy
            1           2           3           4           5           6
    1   0.0208319  -0.0618047   0.0018105  -0.0009656   0.0627629  -0.0216608
    2  -0.0253933   0.0206025   0.0041835  -0.0035785  -0.0200909   0.0250301
    3  -0.0008172  -0.0179705   0.0022487  -0.0008728   0.0165195   0.0019600
            7           8           9          10
    1  -0.0017164   0.0004063   0.0028965  -0.0025606
    2  -0.0040865   0.0029929   0.0032891  -0.0029490
    3  -0.0024767   0.0022933   0.0019079  -0.0027923
 Max gradient component =       6.276E-02
 RMS gradient           =       1.957E-02
drvman.C: 248: out of SCF_Grad for normal SCF gradient
 Gradient time:  CPU 0.38 s  wall 0.43 s
 ------------------------------------------------------------------------------
                     drvman        : Timing summary (seconds)
 ------------------------------------------------------------------------------
     job step          cpu (% of tot)      sys (% of tot)     wall (% of tot)
 ------------------------------------------------------------------------------
 ------------------------------------------------------------------------------
   Grand Totals     0.3840E+00          0.2000E-05          0.4280E+00
 ------------------------------------------------------------------------------
drvman_main.C: 77: out of DrvMan =======================================================
            AB INITIO MOLECULAR DYNAMICS
=======================================================
Directory /home/jcartus/scratch/Butadien_6.mol.dir/AIMD already exists
AIMD will take 400 BOMD steps Velocity Verlet integration
Time step = 20.00000 a.u. ( = 0.48378 fs)
Total simulation time requested = 193.511 fs
Integral threshold = 10**(-11)
SCF convergence threshold = 10**(-8)
Generating viewable xyz trajectory,
 file (in Angstroms) at AIMD/View.xyz
Choosing nuclear velocities from Maxwell-Boltzmann
Velocities sampled from Maxwell-Boltzmann at T = 400.0 K
sqrt(kT/m) and (vx,vy,vz) for each atom:
  1   2.4064e-04  -1.44e-04   3.45e-04  -2.66e-04 
  2   2.4064e-04   1.28e-05   1.43e-04   8.08e-05 
  3   8.3036e-04   1.12e-03   8.92e-04  -7.88e-04 
  4   8.3036e-04   1.36e-04  -9.00e-04   5.04e-04 
  5   2.4064e-04  -6.52e-05   1.43e-04  -5.34e-05 
  6   2.4064e-04   5.31e-04  -3.50e-04   5.45e-04 
  7   8.3036e-04   5.84e-04  -6.34e-04   1.85e-04 
  8   8.3036e-04  -6.01e-04  -6.09e-04  -3.87e-04 
  9   8.3036e-04   5.62e-04   5.83e-05   7.81e-04 
 10   8.3036e-04   2.91e-04   1.16e-03  -1.71e-04 
T(nuclear) = 0.01774031 a.u.
v(c.o.m.) = (  1.1340e-04,   6.1702e-05,   7.0259e-05)
T(c.o.m.) = 1.06416e-03 a.u.
kT/2 = 0.000633 a.u.
Tx   = 0.005543 a.u.
Ty   = 0.006516 a.u.
Tz   = 0.005681 a.u.
Mean velocities (a.u.):   2.4259e-04   2.4948e-05   4.2978e-05
Removing c.o.m. velocity
T(nuclear) = 0.01819670 a.u.
v(c.o.m.) = ( -5.6344e-21,  -1.8030e-20,   1.1269e-20)
T(c.o.m.) = 2.38333e-35 a.u.
kT   = 0.001267 a.u. = 0.79 kcal/mol
Tx   = 0.004985 a.u. = 3.13 kcal/mol
Ty   = 0.007002 a.u. = 4.39 kcal/mol
Tz   = 0.006210 a.u. = 3.90 kcal/mol
Initial velocities in m/s
  1     -4.2624e+02      6.9404e+02     -6.5132e+02 
  2     -8.3788e+01      2.5196e+02      1.0764e+02 
  3      1.1189e+03      1.2270e+03     -2.5482e+03 
  4     -1.0324e+03     -2.6918e+03      2.7858e+02 
  5     -2.5439e+02      2.5102e+02     -1.8611e+02 
  6      1.0507e+03     -8.2654e+02      1.1224e+03 
  7     -5.3193e+01     -2.1119e+03     -4.2053e+02 
  8     -2.6457e+03     -2.0569e+03     -1.6699e+03 
  9     -1.0152e+02     -5.9628e+02      8.8323e+02 
 10     -6.9459e+02      1.8186e+03     -1.1981e+03 
----------------------------------------------------------------------------
       Nuclear coordinates (Angst) and velocities (a.u.)
----------------------------------------------------------------------------
             x        y        z            v_x         v_y        v_z
----------------------------------------------------------------------------
1      C    5.3510  -0.8939  -0.5918    -1.9483e-04   3.1725e-04  -2.9772e-04
2      C    4.3400  -0.0258  -0.7122    -3.8300e-05   1.1517e-04   4.9201e-05
3      H    6.2729  -0.6001  -0.1001     5.1147e-04   5.6086e-04  -1.1648e-03
4      H    5.2875  -1.9109  -0.9653    -4.7189e-04  -1.2304e-03   1.2734e-04
5      C    3.0926  -0.3604  -1.3525    -1.1628e-04   1.1474e-04  -8.5073e-05
6      C    2.0477   0.4747  -1.3914     4.8026e-04  -3.7781e-04   5.1306e-04
7      H    1.1261   0.1803  -1.8833    -2.4315e-05  -9.6534e-04  -1.9223e-04
8      H    2.0760   1.4578  -0.9326    -1.2093e-03  -9.4020e-04  -7.6333e-04
9      H    4.4545   0.9792  -0.3116    -4.6403e-05  -2.7256e-04   4.0373e-04
10     H    3.0063  -1.3382  -1.8218    -3.1750e-04   8.3129e-04  -5.4767e-04
----------------------------------------------------------------------------
Write nuclear velocities every 1 time steps

TIME STEP #1 (t = 0.000 a.u. = 0.00000 fs)
--------------------------------------
 Instantaneous Temperature = 383.1 K
 ----------------------------------------------------------------
             Standard Nuclear Orientation (Angstroms)
    I     Atom           X                Y                Z
 ----------------------------------------------------------------
    1      C       5.3488571678    -0.8904495488    -0.5949969616
    2      C       4.3399236789    -0.0246907573    -0.7115823288
    3      H       6.2782188892    -0.5943850694    -0.1125069242
    4      H       5.2825913409    -1.9237060932    -0.9638920254
    5      C       3.0910856713    -0.3590884178    -1.3535102966
    6      C       2.0528976966     0.4705902938    -1.3859794785
    7      H       1.1259215428     0.1702986623    -1.8852117457
    8      H       2.0631274509     1.4476269464    -0.9408108134
    9      H       4.4538520245     0.9761658581    -0.3074470408
   10      H       3.0030772263    -1.3292321149    -1.8274154413
 ----------------------------------------------------------------
 Nuclear Repulsion Energy =   104.3105651947 hartrees
 There are       15 alpha and       15 beta electrons

                       Distance Matrix (Angstroms)
             C (  1)   C (  2)   H (  3)   H (  4)   C (  5)   C (  6)
   C (  2)  1.334570
   H (  3)  1.088193  2.107233
   H (  4)  1.099133  2.135074  1.866340
   C (  5)  2.440332  1.443430  3.428305  2.720759
   C (  6)  3.652592  2.435283  4.539741  4.042491  1.329382
   H (  7)  4.541258  3.427132  5.502126  4.744638  2.103527  1.094848
   H (  8)  4.047494  2.721041  4.756353  4.661691  2.119254  1.073723
   H (  9)  2.089969  1.085366  2.415149  3.086582  2.175841  2.680190
   H ( 10)  2.685902  2.175792  3.769279  2.509035  1.083287  2.082563
             H (  7)   H (  8)   H (  9)
   H (  8)  1.844401
   H (  9)  3.770131  2.517735
   H ( 10)  2.403257  3.062763  3.119281

 Applying Cartesian multipole field
    Component          Value
    ---------          -----
     (2,0,0)        1.00000E-12
     (0,2,0)        2.00000E-11
     (0,0,2)       -3.00000E-11
 Nucleus-field energy     =    -0.0000000011 hartrees
 ENuRep (before)= 104.3105651947
 ENucField = -0.0000000011
 ENuRep (after) = 104.3105651936
 Job number = 2, Threshold = 1.00E-11
Integral type ranges set in mkLRange.C for JobNum: 2  <1-6|1-6>
Symmetry turned off temporarily
Symmetry turned back on
 Job number = 11, Threshold = 1.00E-11
Integral type ranges set in mkLRange.C for JobNum: 11  <1-6|7-7>
 Smallest overlap matrix eigenvalue = 1.81E-01
 Multipole matrices computed through 2nd order
 Guess from superposition of atomic densities
 Warning:  Energy on first SCF cycle will be non-variational
 SAD guess density has 30.000000 electrons
 SCF convergence criterion is 10**(-8)
 A restricted Hartree-Fock SCF calculation will be
 performed using Pulay DIIS extrapolation
 SCF converges when DIIS error is below 1.0E-08
Finding J and K together
 Job number = 22, Threshold = 1.00E-11
Integral type ranges set in mkLRange.C for JobNum: 22  <1-6|1-6>
 MakeJK  time:  CPU       0.12 s  wall       0.12 s
Fock build time:  0.12 s (CPU) 0.12 s (wall)
DIIS Errors:  Max 1.11E+00 RMS 2.16E-01

Current DIIS subspace size = 1
REM_GRID_RESTART_DIIS = 0

 ---------------------------------------
  Cycle       Energy         DIIS Error
 ---------------------------------------
    1    -152.6628117486      2.16E-01  00000
Finding J and K together
 Job number = 22, Threshold = 1.00E-11
Integral type ranges set in mkLRange.C for JobNum: 22  <1-6|1-6>
 MakeJK  time:  CPU       0.14 s  wall       0.14 s
Fock build time:  0.14 s (CPU) 0.14 s (wall)
DIIS Errors:  Max 5.61E-02 RMS 1.29E-02

Current DIIS subspace size = 2
REM_GRID_RESTART_DIIS = 0

    2    -152.9905495794      1.29E-02  00000
Finding J and K together
 Job number = 22, Threshold = 1.00E-11
Integral type ranges set in mkLRange.C for JobNum: 22  <1-6|1-6>
 MakeJK  time:  CPU       0.10 s  wall       0.10 s
Fock build time:  0.10 s (CPU) 0.10 s (wall)
DIIS Errors:  Max 1.74E-02 RMS 3.48E-03

Current DIIS subspace size = 3
REM_GRID_RESTART_DIIS = 0

    3    -153.0146395940      3.48E-03  00000
Finding J and K together
 Job number = 22, Threshold = 1.00E-11
Integral type ranges set in mkLRange.C for JobNum: 22  <1-6|1-6>
 MakeJK  time:  CPU       0.10 s  wall       0.11 s
Fock build time:  0.10 s (CPU) 0.11 s (wall)
DIIS Errors:  Max 7.36E-03 RMS 1.25E-03

Current DIIS subspace size = 4
REM_GRID_RESTART_DIIS = 0

    4    -153.0164139273      1.25E-03  00000
Finding J and K together
 Job number = 22, Threshold = 1.00E-11
Integral type ranges set in mkLRange.C for JobNum: 22  <1-6|1-6>
 MakeJK  time:  CPU       0.10 s  wall       0.10 s
Fock build time:  0.10 s (CPU) 0.10 s (wall)
DIIS Errors:  Max 7.98E-04 RMS 9.29E-05

Current DIIS subspace size = 5
REM_GRID_RESTART_DIIS = 0

    5    -153.0165759462      9.29E-05  00000
Finding J and K together
 Job number = 22, Threshold = 1.00E-11
Integral type ranges set in mkLRange.C for JobNum: 22  <1-6|1-6>
 MakeJK  time:  CPU       0.11 s  wall       0.11 s
Fock build time:  0.11 s (CPU) 0.11 s (wall)
DIIS Errors:  Max 1.19E-04 RMS 1.39E-05

Current DIIS subspace size = 6
REM_GRID_RESTART_DIIS = 0

    6    -153.0165788950      1.39E-05  00000
Finding J and K together
 Job number = 22, Threshold = 1.00E-11
Integral type ranges set in mkLRange.C for JobNum: 22  <1-6|1-6>
 MakeJK  time:  CPU       0.12 s  wall       0.13 s
Fock build time:  0.13 s (CPU) 0.13 s (wall)
DIIS Errors:  Max 1.64E-05 RMS 3.32E-06

Current DIIS subspace size = 7
REM_GRID_RESTART_DIIS = 0

    7    -153.0165789577      3.32E-06  00000
Finding J and K together
 Job number = 22, Threshold = 1.00E-11
Integral type ranges set in mkLRange.C for JobNum: 22  <1-6|1-6>
 MakeJK  time:  CPU       0.13 s  wall       0.13 s
Fock build time:  0.13 s (CPU) 0.13 s (wall)
DIIS Errors:  Max 4.53E-06 RMS 9.49E-07

Current DIIS subspace size = 8
REM_GRID_RESTART_DIIS = 0

    8    -153.0165789593      9.49E-07  00000
Finding J and K together
 Job number = 22, Threshold = 1.00E-11
Integral type ranges set in mkLRange.C for JobNum: 22  <1-6|1-6>
 MakeJK  time:  CPU       0.12 s  wall       0.12 s
Fock build time:  0.12 s (CPU) 0.12 s (wall)
DIIS Errors:  Max 6.56E-07 RMS 1.25E-07

Current DIIS subspace size = 9
REM_GRID_RESTART_DIIS = 0

    9    -153.0165789594      1.25E-07  00000
Finding J and K together
 Job number = 22, Threshold = 1.00E-11
Integral type ranges set in mkLRange.C for JobNum: 22  <1-6|1-6>
 MakeJK  time:  CPU       0.11 s  wall       0.11 s
Fock build time:  0.11 s (CPU) 0.11 s (wall)
DIIS Errors:  Max 3.15E-07 RMS 5.56E-08

Current DIIS subspace size = 10
REM_GRID_RESTART_DIIS = 0

   10    -153.0165789594      5.56E-08  00000
Finding J and K together
 Job number = 22, Threshold = 1.00E-11
Integral type ranges set in mkLRange.C for JobNum: 22  <1-6|1-6>
 MakeJK  time:  CPU       0.15 s  wall       0.15 s
Fock build time:  0.15 s (CPU) 0.15 s (wall)
DIIS Errors:  Max 5.90E-08 RMS 1.18E-08

Current DIIS subspace size = 11
REM_GRID_RESTART_DIIS = 0

   11    -153.0165789594      1.18E-08  00000
Finding J and K together
 Job number = 22, Threshold = 1.00E-11
Integral type ranges set in mkLRange.C for JobNum: 22  <1-6|1-6>
 MakeJK  time:  CPU       0.12 s  wall       0.14 s
Fock build time:  0.12 s (CPU) 0.14 s (wall)
DIIS Errors:  Max 1.03E-08 RMS 1.79E-09

Current DIIS subspace size = 12
REM_GRID_RESTART_DIIS = 0

   12    -153.0165789594      1.79E-09  00000 Convergence criterion met
 ---------------------------------------
 SCF time:  CPU 1.46 s  wall 1.49 s
 SCF   energy in the final basis set = -153.01657896
 Total energy in the final basis set = -153.01657896
drvman_main.C: 73: calling DrvMan  Calculating analytic gradient of the SCF energy
drvman.C : 218: Calculating analytic gradient of the SCF energy
drvman.C: 244: calling SCF_Grad for normal SCF gradient
 Job number = 111, Threshold = 1.00E-11
Integral type ranges set in mkLRange.C for JobNum: 11  <1-6|7-7>
 Warning:  Cost of integrals step H3 set to -1469147192
 Warning:  Retrieved cost of -1469147192 for integrals step H3
 Warning:  Retrieved cost of -1469147192 for integrals step H3
 Warning:  Retrieved cost of -1469147192 for integrals step H3
Finding J and K together
 ML is being used
 Job number = 122, Threshold = 1.00E-11
Integral type ranges set in mkLRange.C for JobNum: 22  <1-6|1-6>
 MakeJK  time:  CPU       0.40 s  wall       0.43 s
 Gradient of SCF Energy
            1           2           3           4           5           6
    1   0.0156012  -0.0575828   0.0040459  -0.0017543   0.0519044  -0.0017590
    2  -0.0116094   0.0210746   0.0050260  -0.0153015  -0.0181208   0.0293228
    3   0.0014462  -0.0158986   0.0026135  -0.0041737   0.0122471   0.0129607
            7           8           9          10
    1  -0.0087395  -0.0016027   0.0026939  -0.0028072
    2  -0.0060834  -0.0062168   0.0008675   0.0010411
    3  -0.0062101  -0.0033414   0.0018285  -0.0014723
 Max gradient component =       5.758E-02
 RMS gradient           =       1.744E-02
drvman.C: 248: out of SCF_Grad for normal SCF gradient
 Gradient time:  CPU 0.42 s  wall 0.47 s
 ------------------------------------------------------------------------------
                     drvman        : Timing summary (seconds)
 ------------------------------------------------------------------------------
     job step          cpu (% of tot)      sys (% of tot)     wall (% of tot)
 ------------------------------------------------------------------------------
 ------------------------------------------------------------------------------
   Grand Totals     0.4160E+00          0.3000E-05          0.4652E+00
 ------------------------------------------------------------------------------
drvman_main.C: 77: out of DrvMan  Time for this dynamics step: 1.9 s (CPU) 2.0 s (wall)

TIME STEP #2 (t = 20.000 a.u. = 0.48378 fs)
--------------------------------------
 Instantaneous Temperature = 387.5 K
 ----------------------------------------------------------------
             Standard Nuclear Orientation (Angstroms)
    I     Atom           X                Y                Z
 ----------------------------------------------------------------
    1      C       5.3465433704    -0.8868567589    -0.5981579176
    2      C       4.3403745592    -0.0237754437    -0.7108208145
    3      H       6.2830616303    -0.5892692161    -0.1252649669
    4      H       5.2778548021    -1.9347592054    -0.9620131724
    5      C       3.0890490878    -0.3576014888    -1.3546091025
    6      C       2.0581024140     0.4661868444    -1.3806843718
    7      H       1.1267700156     0.1610182354    -1.8863879833
    8      H       2.0504895604     1.4382201732    -0.9486366429
    9      H       4.4528836662     0.9729917668    -0.3034947567
   10      H       3.0001878835    -1.3203841787    -1.8328812552
 ----------------------------------------------------------------
 Nuclear Repulsion Energy =   104.4788444783 hartrees
 There are       15 alpha and       15 beta electrons

                       Distance Matrix (Angstroms)
             C (  1)   C (  2)   H (  3)   H (  4)   C (  5)   C (  6)
   C (  2)  1.330405
   H (  3)  1.090529  2.106346
   H (  4)  1.111399  2.143321  1.876415
   C (  5)  2.438977  1.446278  3.430258  2.726248
   C (  6)  3.641005  2.428486  4.532146  4.038147  1.319908
   H (  7)  4.534762  3.426859  5.500166  4.741124  2.098165  1.102835
   H (  8)  4.048801  2.727189  4.764800  4.668303  2.113858  1.063754
   H (  9)  2.084344  1.082644  2.412877  3.093419  2.176089  2.674353
   H ( 10)  2.686610  2.176307  3.771968  2.514684  1.078699  2.069745
             H (  7)   H (  8)   H (  9)
   H (  8)  1.834088
   H (  9)  3.771987  2.530641
   H ( 10)  2.388956  3.048559  3.115914

 Applying Cartesian multipole field
    Component          Value
    ---------          -----
     (2,0,0)        1.00000E-12
     (0,2,0)        2.00000E-11
     (0,0,2)       -3.00000E-11
 Nucleus-field energy     =    -0.0000000011 hartrees
 ENuRep (before)= 104.4788444783
 ENucField = -0.0000000011
 ENuRep (after) = 104.4788444772
 Job number = 2, Threshold = 1.00E-11
Integral type ranges set in mkLRange.C for JobNum: 2  <1-6|1-6>
Symmetry turned off temporarily
Symmetry turned back on
 Job number = 11, Threshold = 1.00E-11
Integral type ranges set in mkLRange.C for JobNum: 11  <1-6|7-7>
 Smallest overlap matrix eigenvalue = 1.78E-01
 Multipole matrices computed through 2nd order
 Guess from superposition of atomic densities
 Warning:  Energy on first SCF cycle will be non-variational
 SAD guess density has 30.000000 electrons
 SCF convergence criterion is 10**(-8)
 A restricted Hartree-Fock SCF calculation will be
 performed using Pulay DIIS extrapolation
 SCF converges when DIIS error is below 1.0E-08
Finding J and K together
 Job number = 22, Threshold = 1.00E-11
Integral type ranges set in mkLRange.C for JobNum: 22  <1-6|1-6>
 MakeJK  time:  CPU       0.13 s  wall       0.14 s
Fock build time:  0.13 s (CPU) 0.14 s (wall)
DIIS Errors:  Max 1.13E+00 RMS 2.18E-01

Current DIIS subspace size = 1
REM_GRID_RESTART_DIIS = 0

 ---------------------------------------
  Cycle       Energy         DIIS Error
 ---------------------------------------
    1    -152.6830493601      2.18E-01  00000
Finding J and K together
 Job number = 22, Threshold = 1.00E-11
Integral type ranges set in mkLRange.C for JobNum: 22  <1-6|1-6>
 MakeJK  time:  CPU       0.17 s  wall       0.18 s
Fock build time:  0.17 s (CPU) 0.18 s (wall)
DIIS Errors:  Max 5.66E-02 RMS 1.29E-02

Current DIIS subspace size = 2
REM_GRID_RESTART_DIIS = 0

    2    -152.9899843587      1.29E-02  00000
Finding J and K together
 Job number = 22, Threshold = 1.00E-11
Integral type ranges set in mkLRange.C for JobNum: 22  <1-6|1-6>
 MakeJK  time:  CPU       0.16 s  wall       0.18 s
Fock build time:  0.16 s (CPU) 0.18 s (wall)
DIIS Errors:  Max 1.74E-02 RMS 3.47E-03

Current DIIS subspace size = 3
REM_GRID_RESTART_DIIS = 0

    3    -153.0140483511      3.47E-03  00000
Finding J and K together
 Job number = 22, Threshold = 1.00E-11
Integral type ranges set in mkLRange.C for JobNum: 22  <1-6|1-6>
 MakeJK  time:  CPU       0.17 s  wall       0.18 s
Fock build time:  0.17 s (CPU) 0.18 s (wall)
DIIS Errors:  Max 7.28E-03 RMS 1.21E-03

Current DIIS subspace size = 4
REM_GRID_RESTART_DIIS = 0

    4    -153.0158071447      1.21E-03  00000
Finding J and K together
 Job number = 22, Threshold = 1.00E-11
Integral type ranges set in mkLRange.C for JobNum: 22  <1-6|1-6>
 MakeJK  time:  CPU       0.13 s  wall       0.13 s
Fock build time:  0.13 s (CPU) 0.13 s (wall)
DIIS Errors:  Max 7.67E-04 RMS 8.96E-05

Current DIIS subspace size = 5
REM_GRID_RESTART_DIIS = 0

    5    -153.0159589295      8.96E-05  00000
Finding J and K together
 Job number = 22, Threshold = 1.00E-11
Integral type ranges set in mkLRange.C for JobNum: 22  <1-6|1-6>
 MakeJK  time:  CPU       0.12 s  wall       0.12 s
Fock build time:  0.12 s (CPU) 0.12 s (wall)
DIIS Errors:  Max 1.23E-04 RMS 1.59E-05

Current DIIS subspace size = 6
REM_GRID_RESTART_DIIS = 0

    6    -153.0159616161      1.59E-05  00000
Finding J and K together
 Job number = 22, Threshold = 1.00E-11
Integral type ranges set in mkLRange.C for JobNum: 22  <1-6|1-6>
 MakeJK  time:  CPU       0.10 s  wall       0.10 s
Fock build time:  0.10 s (CPU) 0.10 s (wall)
DIIS Errors:  Max 2.66E-05 RMS 4.69E-06

Current DIIS subspace size = 7
REM_GRID_RESTART_DIIS = 0

    7    -153.0159616847      4.69E-06  00000
Finding J and K together
 Job number = 22, Threshold = 1.00E-11
Integral type ranges set in mkLRange.C for JobNum: 22  <1-6|1-6>
 MakeJK  time:  CPU       0.10 s  wall       0.10 s
Fock build time:  0.10 s (CPU) 0.10 s (wall)
DIIS Errors:  Max 5.12E-06 RMS 1.01E-06

Current DIIS subspace size = 8
REM_GRID_RESTART_DIIS = 0

    8    -153.0159616880      1.01E-06  00000
Finding J and K together
 Job number = 22, Threshold = 1.00E-11
Integral type ranges set in mkLRange.C for JobNum: 22  <1-6|1-6>
 MakeJK  time:  CPU       0.10 s  wall       0.10 s
Fock build time:  0.10 s (CPU) 0.10 s (wall)
DIIS Errors:  Max 1.14E-06 RMS 2.14E-07

Current DIIS subspace size = 9
REM_GRID_RESTART_DIIS = 0

    9    -153.0159616882      2.14E-07  00000
Finding J and K together
 Job number = 22, Threshold = 1.00E-11
Integral type ranges set in mkLRange.C for JobNum: 22  <1-6|1-6>
 MakeJK  time:  CPU       0.14 s  wall       0.14 s
Fock build time:  0.14 s (CPU) 0.14 s (wall)
DIIS Errors:  Max 4.71E-07 RMS 8.79E-08

Current DIIS subspace size = 10
REM_GRID_RESTART_DIIS = 0

   10    -153.0159616882      8.79E-08  00000
Finding J and K together
 Job number = 22, Threshold = 1.00E-11
Integral type ranges set in mkLRange.C for JobNum: 22  <1-6|1-6>
 MakeJK  time:  CPU       0.13 s  wall       0.14 s
Fock build time:  0.13 s (CPU) 0.14 s (wall)
DIIS Errors:  Max 6.28E-08 RMS 1.29E-08

Current DIIS subspace size = 11
REM_GRID_RESTART_DIIS = 0

   11    -153.0159616882      1.29E-08  00000
Finding J and K together
 Job number = 22, Threshold = 1.00E-11
Integral type ranges set in mkLRange.C for JobNum: 22  <1-6|1-6>
 MakeJK  time:  CPU       0.10 s  wall       0.11 s
Fock build time:  0.10 s (CPU) 0.11 s (wall)
DIIS Errors:  Max 1.12E-08 RMS 1.90E-09

Current DIIS subspace size = 12
REM_GRID_RESTART_DIIS = 0

   12    -153.0159616882      1.90E-09  00000 Convergence criterion met
 ---------------------------------------
 SCF time:  CPU 1.58 s  wall 1.64 s
 SCF   energy in the final basis set = -153.01596169
 Total energy in the final basis set = -153.01596169
drvman_main.C: 73: calling DrvMan  Calculating analytic gradient of the SCF energy
drvman.C : 218: Calculating analytic gradient of the SCF energy
drvman.C: 244: calling SCF_Grad for normal SCF gradient
 Job number = 111, Threshold = 1.00E-11
Integral type ranges set in mkLRange.C for JobNum: 11  <1-6|7-7>
Finding J and K together
 ML is being used
 Job number = 122, Threshold = 1.00E-11
Integral type ranges set in mkLRange.C for JobNum: 22  <1-6|1-6>
 MakeJK  time:  CPU       0.40 s  wall       0.42 s
 Gradient of SCF Energy
            1           2           3           4           5           6
    1   0.0097048  -0.0516507   0.0059601  -0.0023873   0.0389910   0.0176688
    2   0.0011320   0.0209179   0.0056893  -0.0250849  -0.0151091   0.0314266
    3   0.0030093  -0.0133353   0.0027376  -0.0065902   0.0076503   0.0226975
            7           8           9          10
    1  -0.0143568  -0.0033455   0.0023569  -0.0029414
    2  -0.0075986  -0.0147079  -0.0016596   0.0049941
    3  -0.0092175  -0.0085097   0.0016288  -0.0000707
 Max gradient component =       5.165E-02
 RMS gradient           =       1.679E-02
drvman.C: 248: out of SCF_Grad for normal SCF gradient
 Gradient time:  CPU 0.41 s  wall 0.44 s
 ------------------------------------------------------------------------------
                     drvman        : Timing summary (seconds)
 ------------------------------------------------------------------------------
     job step          cpu (% of tot)      sys (% of tot)     wall (% of tot)
 ------------------------------------------------------------------------------
 ------------------------------------------------------------------------------
   Grand Totals     0.4120E+00          0.2000E-05          0.4356E+00
 ------------------------------------------------------------------------------
drvman_main.C: 77: out of DrvMan  Time for this dynamics step: 2.0 s (CPU) 2.1 s (wall)

TIME STEP #3 (t = 40.000 a.u. = 0.96755 fs)
--------------------------------------
 Instantaneous Temperature = 375.0 K
 ----------------------------------------------------------------
             Standard Nuclear Orientation (Angstroms)
    I     Atom           X                Y                Z
 ----------------------------------------------------------------
    1      C       5.3441356638    -0.8832749231    -0.6013479930
    2      C       4.3413252390    -0.0230625432    -0.7099302604
    3      H       6.2872176760    -0.5848088607    -0.1383384231
    4      H       5.2733933246    -1.9429221322    -0.9593750226
    5      C       3.0866352065    -0.3559683558    -1.3557819364
    6      C       2.0631361588     0.4614792943    -1.3756088981
    7      H       1.1292726208     0.1526132872    -1.8865022125
    8      H       2.0382371200     1.4305079840    -0.9554820199
    9      H       4.4516437522     0.9700088838    -0.2997301414
   10      H       2.9976374350    -1.3121116461    -1.8383389218
 ----------------------------------------------------------------
 Nuclear Repulsion Energy =   104.6614571215 hartrees
 There are       15 alpha and       15 beta electrons

                       Distance Matrix (Angstroms)
             C (  1)   C (  2)   H (  3)   H (  4)   C (  5)   C (  6)
   C (  2)  1.325664
   H (  3)  1.092183  2.104465
   H (  4)  1.120732  2.148682  1.883192
   C (  5)  2.437936  1.449896  3.431948  2.730837
   C (  6)  3.629435  2.422407  4.524204  4.032387  1.310024
   H (  7)  4.526561  3.425269  5.495841  4.735459  2.090834  1.108382
   H (  8)  4.050675  2.734479  4.773161  4.674001  2.109710  1.056477
   H (  9)  2.078984  1.080104  2.410983  3.097672  2.176398  2.668536
   H ( 10)  2.687025  2.177258  3.773633  2.519834  1.074705  2.057434
             H (  7)   H (  8)   H (  9)
   H (  8)  1.823741
   H (  9)  3.771489  2.542951
   H ( 10)  2.374558  3.036750  3.112800

 Applying Cartesian multipole field
    Component          Value
    ---------          -----
     (2,0,0)        1.00000E-12
     (0,2,0)        2.00000E-11
     (0,0,2)       -3.00000E-11
 Nucleus-field energy     =    -0.0000000011 hartrees
 ENuRep (before)= 104.6614571215
 ENucField = -0.0000000011
 ENuRep (after) = 104.6614571204
 Job number = 2, Threshold = 1.00E-11
Integral type ranges set in mkLRange.C for JobNum: 2  <1-6|1-6>
Symmetry turned off temporarily
Symmetry turned back on
 Job number = 11, Threshold = 1.00E-11
Integral type ranges set in mkLRange.C for JobNum: 11  <1-6|7-7>
 Smallest overlap matrix eigenvalue = 1.75E-01
 Multipole matrices computed through 2nd order
 Guess from superposition of atomic densities
 Warning:  Energy on first SCF cycle will be non-variational
 SAD guess density has 30.000000 electrons
 SCF convergence criterion is 10**(-8)
 A restricted Hartree-Fock SCF calculation will be
 performed using Pulay DIIS extrapolation
 SCF converges when DIIS error is below 1.0E-08
Finding J and K together
 Job number = 22, Threshold = 1.00E-11
Integral type ranges set in mkLRange.C for JobNum: 22  <1-6|1-6>
 MakeJK  time:  CPU       0.08 s  wall       0.09 s
Fock build time:  0.08 s (CPU) 0.09 s (wall)
DIIS Errors:  Max 1.15E+00 RMS 2.19E-01

Current DIIS subspace size = 1
REM_GRID_RESTART_DIIS = 0

 ---------------------------------------
  Cycle       Energy         DIIS Error
 ---------------------------------------
    1    -152.7068111104      2.19E-01  00000
Finding J and K together
 Job number = 22, Threshold = 1.00E-11
Integral type ranges set in mkLRange.C for JobNum: 22  <1-6|1-6>
 MakeJK  time:  CPU       0.12 s  wall       0.12 s
Fock build time:  0.12 s (CPU) 0.12 s (wall)
DIIS Errors:  Max 5.71E-02 RMS 1.29E-02

Current DIIS subspace size = 2
REM_GRID_RESTART_DIIS = 0

    2    -152.9889364907      1.29E-02  00000
Finding J and K together
 Job number = 22, Threshold = 1.00E-11
Integral type ranges set in mkLRange.C for JobNum: 22  <1-6|1-6>
 MakeJK  time:  CPU       0.11 s  wall       0.11 s
Fock build time:  0.11 s (CPU) 0.11 s (wall)
DIIS Errors:  Max 1.74E-02 RMS 3.46E-03

Current DIIS subspace size = 3
REM_GRID_RESTART_DIIS = 0

    3    -153.0129735206      3.46E-03  00000
Finding J and K together
 Job number = 22, Threshold = 1.00E-11
Integral type ranges set in mkLRange.C for JobNum: 22  <1-6|1-6>
 MakeJK  time:  CPU       0.14 s  wall       0.14 s
Fock build time:  0.14 s (CPU) 0.14 s (wall)
DIIS Errors:  Max 7.16E-03 RMS 1.18E-03

Current DIIS subspace size = 4
REM_GRID_RESTART_DIIS = 0

    4    -153.0147154410      1.18E-03  00000
Finding J and K together
 Job number = 22, Threshold = 1.00E-11
Integral type ranges set in mkLRange.C for JobNum: 22  <1-6|1-6>
 MakeJK  time:  CPU       0.14 s  wall       0.14 s
Fock build time:  0.14 s (CPU) 0.14 s (wall)
DIIS Errors:  Max 7.33E-04 RMS 8.63E-05

Current DIIS subspace size = 5
REM_GRID_RESTART_DIIS = 0

    5    -153.0148575562      8.63E-05  00000
Finding J and K together
 Job number = 22, Threshold = 1.00E-11
Integral type ranges set in mkLRange.C for JobNum: 22  <1-6|1-6>
 MakeJK  time:  CPU       0.14 s  wall       0.14 s
Fock build time:  0.14 s (CPU) 0.14 s (wall)
DIIS Errors:  Max 1.26E-04 RMS 1.76E-05

Current DIIS subspace size = 6
REM_GRID_RESTART_DIIS = 0

    6    -153.0148599820      1.76E-05  00000
Finding J and K together
 Job number = 22, Threshold = 1.00E-11
Integral type ranges set in mkLRange.C for JobNum: 22  <1-6|1-6>
 MakeJK  time:  CPU       0.12 s  wall       0.13 s
Fock build time:  0.12 s (CPU) 0.13 s (wall)
DIIS Errors:  Max 3.13E-05 RMS 5.18E-06

Current DIIS subspace size = 7
REM_GRID_RESTART_DIIS = 0

    7    -153.0148600565      5.18E-06  00000
Finding J and K together
 Job number = 22, Threshold = 1.00E-11
Integral type ranges set in mkLRange.C for JobNum: 22  <1-6|1-6>
 MakeJK  time:  CPU       0.11 s  wall       0.12 s
Fock build time:  0.12 s (CPU) 0.12 s (wall)
DIIS Errors:  Max 5.64E-06 RMS 1.09E-06

Current DIIS subspace size = 8
REM_GRID_RESTART_DIIS = 0

    8    -153.0148600609      1.09E-06  00000
Finding J and K together
 Job number = 22, Threshold = 1.00E-11
Integral type ranges set in mkLRange.C for JobNum: 22  <1-6|1-6>
 MakeJK  time:  CPU       0.12 s  wall       0.12 s
Fock build time:  0.12 s (CPU) 0.12 s (wall)
DIIS Errors:  Max 1.46E-06 RMS 2.77E-07

Current DIIS subspace size = 9
REM_GRID_RESTART_DIIS = 0

    9    -153.0148600610      2.77E-07  00000
Finding J and K together
 Job number = 22, Threshold = 1.00E-11
Integral type ranges set in mkLRange.C for JobNum: 22  <1-6|1-6>
 MakeJK  time:  CPU       0.14 s  wall       0.14 s
Fock build time:  0.14 s (CPU) 0.14 s (wall)
DIIS Errors:  Max 5.33E-07 RMS 1.03E-07

Current DIIS subspace size = 10
REM_GRID_RESTART_DIIS = 0

   10    -153.0148600610      1.03E-07  00000
Finding J and K together
 Job number = 22, Threshold = 1.00E-11
Integral type ranges set in mkLRange.C for JobNum: 22  <1-6|1-6>
 MakeJK  time:  CPU       0.14 s  wall       0.14 s
Fock build time:  0.14 s (CPU) 0.14 s (wall)
DIIS Errors:  Max 6.33E-08 RMS 1.20E-08

Current DIIS subspace size = 11
REM_GRID_RESTART_DIIS = 0

   11    -153.0148600610      1.20E-08  00000
Finding J and K together
 Job number = 22, Threshold = 1.00E-11
Integral type ranges set in mkLRange.C for JobNum: 22  <1-6|1-6>
 MakeJK  time:  CPU       0.10 s  wall       0.10 s
Fock build time:  0.10 s (CPU) 0.10 s (wall)
DIIS Errors:  Max 1.13E-08 RMS 1.98E-09

Current DIIS subspace size = 12
REM_GRID_RESTART_DIIS = 0

   12    -153.0148600610      1.98E-09  00000 Convergence criterion met
 ---------------------------------------
 SCF time:  CPU 1.49 s  wall 1.51 s
 SCF   energy in the final basis set = -153.01486006
 Total energy in the final basis set = -153.01486006
drvman_main.C: 73: calling DrvMan  Calculating analytic gradient of the SCF energy
drvman.C : 218: Calculating analytic gradient of the SCF energy
drvman.C: 244: calling SCF_Grad for normal SCF gradient
 Job number = 111, Threshold = 1.00E-11
Integral type ranges set in mkLRange.C for JobNum: 11  <1-6|7-7>
Finding J and K together
 ML is being used
 Job number = 122, Threshold = 1.00E-11
Integral type ranges set in mkLRange.C for JobNum: 22  <1-6|1-6>
 MakeJK  time:  CPU       0.35 s  wall       0.40 s
 Gradient of SCF Energy
            1           2           3           4           5           6
    1   0.0033696  -0.0443051   0.0073963  -0.0028144   0.0243888   0.0359350
    2   0.0120929   0.0199611   0.0061269  -0.0322513  -0.0107261   0.0299565
    3   0.0037857  -0.0104688   0.0025652  -0.0079624   0.0030518   0.0302483
            7           8           9          10
    1  -0.0180397  -0.0048328   0.0019218  -0.0030195
    2  -0.0084705  -0.0211527  -0.0040424   0.0085057
    3  -0.0112039  -0.0126268   0.0014059   0.0012050
 Max gradient component =       4.431E-02
 RMS gradient           =       1.726E-02
drvman.C: 248: out of SCF_Grad for normal SCF gradient
 Gradient time:  CPU 0.36 s  wall 0.41 s
 ------------------------------------------------------------------------------
                     drvman        : Timing summary (seconds)
 ------------------------------------------------------------------------------
     job step          cpu (% of tot)      sys (% of tot)     wall (% of tot)
 ------------------------------------------------------------------------------
 ------------------------------------------------------------------------------
   Grand Totals     0.3640E+00          0.2000E-05          0.4147E+00
 ------------------------------------------------------------------------------
drvman_main.C: 77: out of DrvMan  Time for this dynamics step: 1.9 s (CPU) 1.9 s (wall)

TIME STEP #4 (t = 60.000 a.u. = 1.45133 fs)
--------------------------------------
 Instantaneous Temperature = 352.4 K
 ----------------------------------------------------------------
             Standard Nuclear Orientation (Angstroms)
    I     Atom           X                Y                Z
 ----------------------------------------------------------------
    1      C       5.3416953511    -0.8798101045    -0.6045747009
    2      C       4.3427046390    -0.0225427973    -0.7089384049
    3      H       6.2905215432    -0.5810544203    -0.1517074296
    4      H       5.2692561066    -1.9473691850    -0.9558194776
    5      C       3.0839853266    -0.3542314312    -1.3569843015
    6      C       2.0678221773     0.4564818689    -1.3708261229
    7      H       1.1338536947     0.1451842829    -1.8853255728
    8      H       2.0265414954     1.4252329277    -0.9608725798
    9      H       4.4501824168     0.9674917560    -0.2961275046
   10      H       2.9954348823    -1.3048191059    -1.8439354224
 ----------------------------------------------------------------
 Nuclear Repulsion Energy =   104.8540176087 hartrees
 There are       15 alpha and       15 beta electrons

                       Distance Matrix (Angstroms)
             C (  1)   C (  2)   H (  3)   H (  4)   C (  5)   C (  6)
   C (  2)  1.320523
   H (  3)  1.092984  2.101531
   H (  4)  1.126189  2.150443  1.885841
   C (  5)  2.437131  1.454082  3.433077  2.733940
   C (  6)  3.618157  2.417157  4.515963  4.024911  1.300014
   H (  7)  4.516289  3.421804  5.488541  4.726977  2.081243  1.110816
   H (  8)  4.053445  2.743016  4.781366  4.678640  2.107507  1.052732
   H (  9)  2.074237  1.078023  2.409502  3.098788  2.176893  2.663034
   H ( 10)  2.687301  2.178896  3.774264  2.524259  1.071718  2.046089
             H (  7)   H (  8)   H (  9)
   H (  8)  1.813844
   H (  9)  3.768259  2.554496
   H ( 10)  2.360023  3.028488  3.110530

 Applying Cartesian multipole field
    Component          Value
    ---------          -----
     (2,0,0)        1.00000E-12
     (0,2,0)        2.00000E-11
     (0,0,2)       -3.00000E-11
 Nucleus-field energy     =    -0.0000000011 hartrees
 ENuRep (before)= 104.8540176087
 ENucField = -0.0000000011
 ENuRep (after) = 104.8540176076
 Job number = 2, Threshold = 1.00E-11
Integral type ranges set in mkLRange.C for JobNum: 2  <1-6|1-6>
Symmetry turned off temporarily
Symmetry turned back on
 Job number = 11, Threshold = 1.00E-11
Integral type ranges set in mkLRange.C for JobNum: 11  <1-6|7-7>
 Smallest overlap matrix eigenvalue = 1.72E-01
 Multipole matrices computed through 2nd order
 Guess from superposition of atomic densities
 Warning:  Energy on first SCF cycle will be non-variational
 SAD guess density has 30.000000 electrons
 SCF convergence criterion is 10**(-8)
 A restricted Hartree-Fock SCF calculation will be
 performed using Pulay DIIS extrapolation
 SCF converges when DIIS error is below 1.0E-08
Finding J and K together
 Job number = 22, Threshold = 1.00E-11
Integral type ranges set in mkLRange.C for JobNum: 22  <1-6|1-6>
 MakeJK  time:  CPU       0.12 s  wall       0.12 s
Fock build time:  0.12 s (CPU) 0.12 s (wall)
DIIS Errors:  Max 1.18E+00 RMS 2.21E-01

Current DIIS subspace size = 1
REM_GRID_RESTART_DIIS = 0

 ---------------------------------------
  Cycle       Energy         DIIS Error
 ---------------------------------------
    1    -152.7334226286      2.21E-01  00000
Finding J and K together
 Job number = 22, Threshold = 1.00E-11
Integral type ranges set in mkLRange.C for JobNum: 22  <1-6|1-6>
 MakeJK  time:  CPU       0.16 s  wall       0.16 s
Fock build time:  0.16 s (CPU) 0.16 s (wall)
DIIS Errors:  Max 5.76E-02 RMS 1.29E-02

Current DIIS subspace size = 2
REM_GRID_RESTART_DIIS = 0

    2    -152.9878213897      1.29E-02  00000
Finding J and K together
 Job number = 22, Threshold = 1.00E-11
Integral type ranges set in mkLRange.C for JobNum: 22  <1-6|1-6>
 MakeJK  time:  CPU       0.13 s  wall       0.13 s
Fock build time:  0.13 s (CPU) 0.13 s (wall)
DIIS Errors:  Max 1.74E-02 RMS 3.44E-03

Current DIIS subspace size = 3
REM_GRID_RESTART_DIIS = 0

    3    -153.0118247475      3.44E-03  00000
Finding J and K together
 Job number = 22, Threshold = 1.00E-11
Integral type ranges set in mkLRange.C for JobNum: 22  <1-6|1-6>
 MakeJK  time:  CPU       0.11 s  wall       0.11 s
Fock build time:  0.11 s (CPU) 0.11 s (wall)
DIIS Errors:  Max 6.99E-03 RMS 1.14E-03

Current DIIS subspace size = 4
REM_GRID_RESTART_DIIS = 0

    4    -153.0135485767      1.14E-03  00000
Finding J and K together
 Job number = 22, Threshold = 1.00E-11
Integral type ranges set in mkLRange.C for JobNum: 22  <1-6|1-6>
 MakeJK  time:  CPU       0.11 s  wall       0.11 s
Fock build time:  0.11 s (CPU) 0.11 s (wall)
DIIS Errors:  Max 6.99E-04 RMS 8.28E-05

Current DIIS subspace size = 5
REM_GRID_RESTART_DIIS = 0

    5    -153.0136820452      8.28E-05  00000
Finding J and K together
 Job number = 22, Threshold = 1.00E-11
Integral type ranges set in mkLRange.C for JobNum: 22  <1-6|1-6>
 MakeJK  time:  CPU       0.13 s  wall       0.13 s
Fock build time:  0.13 s (CPU) 0.13 s (wall)
DIIS Errors:  Max 1.27E-04 RMS 1.87E-05

Current DIIS subspace size = 6
REM_GRID_RESTART_DIIS = 0

    6    -153.0136842221      1.87E-05  00000
Finding J and K together
 Job number = 22, Threshold = 1.00E-11
Integral type ranges set in mkLRange.C for JobNum: 22  <1-6|1-6>
 MakeJK  time:  CPU       0.11 s  wall       0.11 s
Fock build time:  0.11 s (CPU) 0.11 s (wall)
DIIS Errors:  Max 3.28E-05 RMS 5.26E-06

Current DIIS subspace size = 7
REM_GRID_RESTART_DIIS = 0

    7    -153.0136842997      5.26E-06  00000
Finding J and K together
 Job number = 22, Threshold = 1.00E-11
Integral type ranges set in mkLRange.C for JobNum: 22  <1-6|1-6>
 MakeJK  time:  CPU       0.16 s  wall       0.16 s
Fock build time:  0.16 s (CPU) 0.16 s (wall)
DIIS Errors:  Max 5.85E-06 RMS 1.12E-06

Current DIIS subspace size = 8
REM_GRID_RESTART_DIIS = 0

    8    -153.0136843045      1.12E-06  00000
Finding J and K together
 Job number = 22, Threshold = 1.00E-11
Integral type ranges set in mkLRange.C for JobNum: 22  <1-6|1-6>
 MakeJK  time:  CPU       0.14 s  wall       0.14 s
Fock build time:  0.14 s (CPU) 0.14 s (wall)
DIIS Errors:  Max 1.61E-06 RMS 3.06E-07

Current DIIS subspace size = 9
REM_GRID_RESTART_DIIS = 0

    9    -153.0136843047      3.06E-07  00000
Finding J and K together
 Job number = 22, Threshold = 1.00E-11
Integral type ranges set in mkLRange.C for JobNum: 22  <1-6|1-6>
 MakeJK  time:  CPU       0.17 s  wall       0.17 s
Fock build time:  0.17 s (CPU) 0.17 s (wall)
DIIS Errors:  Max 5.21E-07 RMS 1.03E-07

Current DIIS subspace size = 10
REM_GRID_RESTART_DIIS = 0

   10    -153.0136843047      1.03E-07  00000
Finding J and K together
 Job number = 22, Threshold = 1.00E-11
Integral type ranges set in mkLRange.C for JobNum: 22  <1-6|1-6>
 MakeJK  time:  CPU       0.16 s  wall       0.16 s
Fock build time:  0.16 s (CPU) 0.17 s (wall)
DIIS Errors:  Max 5.93E-08 RMS 1.09E-08

Current DIIS subspace size = 11
REM_GRID_RESTART_DIIS = 0

   11    -153.0136843047      1.09E-08  00000
Finding J and K together
 Job number = 22, Threshold = 1.00E-11
Integral type ranges set in mkLRange.C for JobNum: 22  <1-6|1-6>
 MakeJK  time:  CPU       0.14 s  wall       0.15 s
Fock build time:  0.15 s (CPU) 0.15 s (wall)
DIIS Errors:  Max 1.17E-08 RMS 2.00E-09

Current DIIS subspace size = 12
REM_GRID_RESTART_DIIS = 0

   12    -153.0136843047      2.00E-09  00000 Convergence criterion met
 ---------------------------------------
 SCF time:  CPU 1.66 s  wall 1.68 s
 SCF   energy in the final basis set = -153.01368430
 Total energy in the final basis set = -153.01368430
drvman_main.C: 73: calling DrvMan  Calculating analytic gradient of the SCF energy
drvman.C : 218: Calculating analytic gradient of the SCF energy
drvman.C: 244: calling SCF_Grad for normal SCF gradient
 Job number = 111, Threshold = 1.00E-11
Integral type ranges set in mkLRange.C for JobNum: 11  <1-6|7-7>
Finding J and K together
 ML is being used
 Job number = 122, Threshold = 1.00E-11
Integral type ranges set in mkLRange.C for JobNum: 22  <1-6|1-6>
 MakeJK  time:  CPU       0.42 s  wall       0.46 s
 Gradient of SCF Energy
            1           2           3           4           5           6
    1  -0.0031682  -0.0358813   0.0082313  -0.0030090   0.0085629   0.0525765
    2   0.0208130   0.0180529   0.0063071  -0.0364293  -0.0047520   0.0239035
    3   0.0037840  -0.0074985   0.0020655  -0.0082494  -0.0012280   0.0349639
            7           8           9          10
    1  -0.0194824  -0.0061604   0.0014267  -0.0030959
    2  -0.0086185  -0.0244386  -0.0060358   0.0111977
    3  -0.0119944  -0.0152535   0.0012606   0.0021498
 Max gradient component =       5.258E-02
 RMS gradient           =       1.821E-02
drvman.C: 248: out of SCF_Grad for normal SCF gradient
 Gradient time:  CPU 0.44 s  wall 0.48 s
 ------------------------------------------------------------------------------
                     drvman        : Timing summary (seconds)
 ------------------------------------------------------------------------------
     job step          cpu (% of tot)      sys (% of tot)     wall (% of tot)
 ------------------------------------------------------------------------------
 ------------------------------------------------------------------------------
   Grand Totals     0.4400E+00          0.3000E-05          0.4796E+00
 ------------------------------------------------------------------------------
drvman_main.C: 77: out of DrvMan  Time for this dynamics step: 2.1 s (CPU) 2.2 s (wall)

TIME STEP #5 (t = 80.000 a.u. = 1.93511 fs)
--------------------------------------
 Instantaneous Temperature = 328.0 K
 ----------------------------------------------------------------
             Standard Nuclear Orientation (Angstroms)
    I     Atom           X                Y                Z
 ----------------------------------------------------------------
    1      C       5.3392856958    -0.8765466833    -0.6078380251
    2      C       4.3444312459    -0.0221977409    -0.7078739896
    3      H       6.2928770321    -0.5780266611    -0.1653144099
    4      H       5.2654655774    -1.9476189925    -0.9513134704
    5      C       3.0812525879    -0.3524485232    -1.3581747843
    6      C       2.0719994378     0.4512531404    -1.3663816769
    7      H       1.1406794542     0.1387482724    -1.8827669851
    8      H       2.0155556532     1.4227735918    -0.9645056877
    9      H       4.4485567044     0.9656700508    -0.2926701136
   10      H       2.9935890300    -1.2988167267    -1.8497796105
 ----------------------------------------------------------------
 Nuclear Repulsion Energy =   105.0515764184 hartrees
 There are       15 alpha and       15 beta electrons

                       Distance Matrix (Angstroms)
             C (  1)   C (  2)   H (  3)   H (  4)   C (  5)   C (  6)
   C (  2)  1.315163
   H (  3)  1.092830  2.097560
   H (  4)  1.127218  2.148212  1.883919
   C (  5)  2.436472  1.458622  3.433414  2.735122
   C (  6)  3.607437  2.412827  4.507526  4.015606  1.290192
   H (  7)  4.503839  3.416182  5.478006  4.715336  2.069371  1.109806
   H (  8)  4.057249  2.752719  4.789299  4.682055  2.107629  1.052873
   H (  9)  2.070384  1.076624  2.408472  3.096515  2.177672  2.658102
   H ( 10)  2.687568  2.181394  3.773892  2.527768  1.070034  2.036110
             H (  7)   H (  8)   H (  9)
   H (  8)  1.804808
   H (  9)  3.762215  2.565112
   H ( 10)  2.345412  3.024453  3.109569

 Applying Cartesian multipole field
    Component          Value
    ---------          -----
     (2,0,0)        1.00000E-12
     (0,2,0)        2.00000E-11
     (0,0,2)       -3.00000E-11
 Nucleus-field energy     =    -0.0000000011 hartrees
 ENuRep (before)= 105.0515764184
 ENucField = -0.0000000011
 ENuRep (after) = 105.0515764173
 Job number = 2, Threshold = 1.00E-11
Integral type ranges set in mkLRange.C for JobNum: 2  <1-6|1-6>
Symmetry turned off temporarily
Symmetry turned back on
 Job number = 11, Threshold = 1.00E-11
Integral type ranges set in mkLRange.C for JobNum: 11  <1-6|7-7>
 Smallest overlap matrix eigenvalue = 1.68E-01
 Multipole matrices computed through 2nd order
 Guess from superposition of atomic densities
 Warning:  Energy on first SCF cycle will be non-variational
 SAD guess density has 30.000000 electrons
 SCF convergence criterion is 10**(-8)
 A restricted Hartree-Fock SCF calculation will be
 performed using Pulay DIIS extrapolation
 SCF converges when DIIS error is below 1.0E-08
Finding J and K together
 Job number = 22, Threshold = 1.00E-11
Integral type ranges set in mkLRange.C for JobNum: 22  <1-6|1-6>
 MakeJK  time:  CPU       0.14 s  wall       0.16 s
Fock build time:  0.14 s (CPU) 0.16 s (wall)
DIIS Errors:  Max 1.20E+00 RMS 2.23E-01

Current DIIS subspace size = 1
REM_GRID_RESTART_DIIS = 0

 ---------------------------------------
  Cycle       Energy         DIIS Error
 ---------------------------------------
    1    -152.7620758943      2.23E-01  00000
Finding J and K together
 Job number = 22, Threshold = 1.00E-11
Integral type ranges set in mkLRange.C for JobNum: 22  <1-6|1-6>
 MakeJK  time:  CPU       0.17 s  wall       0.19 s
Fock build time:  0.17 s (CPU) 0.19 s (wall)
DIIS Errors:  Max 5.80E-02 RMS 1.30E-02

Current DIIS subspace size = 2
REM_GRID_RESTART_DIIS = 0

    2    -152.9869362139      1.30E-02  00000
Finding J and K together
 Job number = 22, Threshold = 1.00E-11
Integral type ranges set in mkLRange.C for JobNum: 22  <1-6|1-6>
 MakeJK  time:  CPU       0.17 s  wall       0.17 s
Fock build time:  0.17 s (CPU) 0.17 s (wall)
DIIS Errors:  Max 1.74E-02 RMS 3.43E-03

Current DIIS subspace size = 3
REM_GRID_RESTART_DIIS = 0

    3    -153.0108954833      3.43E-03  00000
Finding J and K together
 Job number = 22, Threshold = 1.00E-11
Integral type ranges set in mkLRange.C for JobNum: 22  <1-6|1-6>
 MakeJK  time:  CPU       0.17 s  wall       0.17 s
Fock build time:  0.17 s (CPU) 0.17 s (wall)
DIIS Errors:  Max 6.81E-03 RMS 1.11E-03

Current DIIS subspace size = 4
REM_GRID_RESTART_DIIS = 0

    4    -153.0126003807      1.11E-03  00000
Finding J and K together
 Job number = 22, Threshold = 1.00E-11
Integral type ranges set in mkLRange.C for JobNum: 22  <1-6|1-6>
 MakeJK  time:  CPU       0.17 s  wall       0.17 s
Fock build time:  0.17 s (CPU) 0.17 s (wall)
DIIS Errors:  Max 6.64E-04 RMS 7.95E-05

Current DIIS subspace size = 5
REM_GRID_RESTART_DIIS = 0

    5    -153.0127266508      7.95E-05  00000
Finding J and K together
 Job number = 22, Threshold = 1.00E-11
Integral type ranges set in mkLRange.C for JobNum: 22  <1-6|1-6>
 MakeJK  time:  CPU       0.15 s  wall       0.16 s
Fock build time:  0.15 s (CPU) 0.16 s (wall)
DIIS Errors:  Max 1.26E-04 RMS 1.90E-05

Current DIIS subspace size = 6
REM_GRID_RESTART_DIIS = 0

    6    -153.0127285987      1.90E-05  00000
Finding J and K together
 Job number = 22, Threshold = 1.00E-11
Integral type ranges set in mkLRange.C for JobNum: 22  <1-6|1-6>
 MakeJK  time:  CPU       0.13 s  wall       0.13 s
Fock build time:  0.13 s (CPU) 0.13 s (wall)
DIIS Errors:  Max 3.21E-05 RMS 5.17E-06

Current DIIS subspace size = 7
REM_GRID_RESTART_DIIS = 0

    7    -153.0127286756      5.17E-06  00000
Finding J and K together
 Job number = 22, Threshold = 1.00E-11
Integral type ranges set in mkLRange.C for JobNum: 22  <1-6|1-6>
 MakeJK  time:  CPU       0.16 s  wall       0.20 s
Fock build time:  0.16 s (CPU) 0.20 s (wall)
DIIS Errors:  Max 5.66E-06 RMS 1.10E-06

Current DIIS subspace size = 8
REM_GRID_RESTART_DIIS = 0

    8    -153.0127286806      1.10E-06  00000
Finding J and K together
 Job number = 22, Threshold = 1.00E-11
Integral type ranges set in mkLRange.C for JobNum: 22  <1-6|1-6>
 MakeJK  time:  CPU       0.16 s  wall       0.18 s
Fock build time:  0.16 s (CPU) 0.18 s (wall)
DIIS Errors:  Max 1.57E-06 RMS 3.07E-07

Current DIIS subspace size = 9
REM_GRID_RESTART_DIIS = 0

    9    -153.0127286808      3.07E-07  00000
Finding J and K together
 Job number = 22, Threshold = 1.00E-11
Integral type ranges set in mkLRange.C for JobNum: 22  <1-6|1-6>
 MakeJK  time:  CPU       0.17 s  wall       0.17 s
Fock build time:  0.17 s (CPU) 0.17 s (wall)
DIIS Errors:  Max 4.59E-07 RMS 9.38E-08

Current DIIS subspace size = 10
REM_GRID_RESTART_DIIS = 0

   10    -153.0127286808      9.38E-08  00000
Finding J and K together
 Job number = 22, Threshold = 1.00E-11
Integral type ranges set in mkLRange.C for JobNum: 22  <1-6|1-6>
 MakeJK  time:  CPU       0.17 s  wall       0.17 s
Fock build time:  0.17 s (CPU) 0.17 s (wall)
DIIS Errors:  Max 5.14E-08 RMS 9.76E-09

Current DIIS subspace size = 11
REM_GRID_RESTART_DIIS = 0

   11    -153.0127286808      9.76E-09  00000 Convergence criterion met
 ---------------------------------------
 SCF time:  CPU 1.77 s  wall 1.91 s
 SCF   energy in the final basis set = -153.01272868
 Total energy in the final basis set = -153.01272868
drvman_main.C: 73: calling DrvMan  Calculating analytic gradient of the SCF energy
drvman.C : 218: Calculating analytic gradient of the SCF energy
drvman.C: 244: calling SCF_Grad for normal SCF gradient
 Job number = 111, Threshold = 1.00E-11
Integral type ranges set in mkLRange.C for JobNum: 11  <1-6|7-7>
Finding J and K together
 ML is being used
 Job number = 122, Threshold = 1.00E-11
Integral type ranges set in mkLRange.C for JobNum: 22  <1-6|1-6>
 MakeJK  time:  CPU       0.41 s  wall       0.42 s
 Gradient of SCF Energy
            1           2           3           4           5           6
    1  -0.0096789  -0.0267365   0.0083828  -0.0029608  -0.0079137   0.0672234
    2   0.0269897   0.0150988   0.0062147  -0.0374349   0.0028320   0.0129761
    3   0.0030530  -0.0046146   0.0012331  -0.0074757  -0.0049157   0.0365661
            7           8           9          10
    1  -0.0185504  -0.0074590   0.0009068  -0.0032136
    2  -0.0080272  -0.0239999  -0.0074315   0.0127821
    3  -0.0115104  -0.0162146   0.0012829   0.0025959
 Max gradient component =       6.722E-02
 RMS gradient           =       1.929E-02
drvman.C: 248: out of SCF_Grad for normal SCF gradient
 Gradient time:  CPU 0.43 s  wall 0.44 s
 ------------------------------------------------------------------------------
                     drvman        : Timing summary (seconds)
 ------------------------------------------------------------------------------
     job step          cpu (% of tot)      sys (% of tot)     wall (% of tot)
 ------------------------------------------------------------------------------
 ------------------------------------------------------------------------------
   Grand Totals     0.4280E+00          0.2000E-05          0.4366E+00
 ------------------------------------------------------------------------------
drvman_main.C: 77: out of DrvMan  Time for this dynamics step: 2.2 s (CPU) 2.4 s (wall)

TIME STEP #6 (t = 100.000 a.u. = 2.41888 fs)
--------------------------------------
 Instantaneous Temperature = 308.0 K
 ----------------------------------------------------------------
             Standard Nuclear Orientation (Angstroms)
    I     Atom           X                Y                Z
 ----------------------------------------------------------------
    1      C       5.3369696987    -0.8735444285    -0.6111308917
    2      C       4.3464165698    -0.0219987882    -0.7067649209
    3      H       6.2942666814    -0.5757149389    -0.1790634615
    4      H       5.2620161797    -1.9435556961    -0.9459461410
    5      C       3.0785964263    -0.3506930192    -1.3593177002
    6      C       2.0755262088     0.4458988478    -1.3622910639
    7      H       1.1496425267     0.1332371223    -1.8788822126
    8      H       2.0054292143     1.4230794316    -0.9662706124
    9      H       4.4468265140     0.9647045803    -0.2893605294
   10      H       2.9921134391    -1.2942870575    -1.8559228908
 ----------------------------------------------------------------
 Nuclear Repulsion Energy =   105.2493109522 hartrees
 There are       15 alpha and       15 beta electrons

                       Distance Matrix (Angstroms)
             C (  1)   C (  2)   H (  3)   H (  4)   C (  5)   C (  6)
   C (  2)  1.309760
   H (  3)  1.091697  2.092652
   H (  4)  1.123674  2.141941  1.877402
   C (  5)  2.435859  1.463295  3.432808  2.734119
   C (  6)  3.597525  2.409478  4.499055  4.004567  1.280905
   H (  7)  4.489378  3.408419  5.464353  4.700538  2.055480  1.105389
   H (  8)  4.061991  2.763298  4.796770  4.684016  2.110081  1.056706
   H (  9)  2.067620  1.076054  2.407923  3.090893  2.178792  2.653941
   H ( 10)  2.687914  2.184815  3.772588  2.530230  1.069797  2.027819
             H (  7)   H (  8)   H (  9)
   H (  8)  1.796921
   H (  9)  3.753577  2.574633
   H ( 10)  2.330891  3.024749  3.110201

 Applying Cartesian multipole field
    Component          Value
    ---------          -----
     (2,0,0)        1.00000E-12
     (0,2,0)        2.00000E-11
     (0,0,2)       -3.00000E-11
 Nucleus-field energy     =    -0.0000000011 hartrees
 ENuRep (before)= 105.2493109522
 ENucField = -0.0000000011
 ENuRep (after) = 105.2493109510
 Job number = 2, Threshold = 1.00E-11
Integral type ranges set in mkLRange.C for JobNum: 2  <1-6|1-6>
Symmetry turned off temporarily
Symmetry turned back on
 Job number = 11, Threshold = 1.00E-11
Integral type ranges set in mkLRange.C for JobNum: 11  <1-6|7-7>
 Smallest overlap matrix eigenvalue = 1.64E-01
 Multipole matrices computed through 2nd order
 Guess from superposition of atomic densities
 Warning:  Energy on first SCF cycle will be non-variational
 SAD guess density has 30.000000 electrons
 SCF convergence criterion is 10**(-8)
 A restricted Hartree-Fock SCF calculation will be
 performed using Pulay DIIS extrapolation
 SCF converges when DIIS error is below 1.0E-08
Finding J and K together
 Job number = 22, Threshold = 1.00E-11
Integral type ranges set in mkLRange.C for JobNum: 22  <1-6|1-6>
 MakeJK  time:  CPU       0.10 s  wall       0.09 s
Fock build time:  0.10 s (CPU) 0.09 s (wall)
DIIS Errors:  Max 1.22E+00 RMS 2.25E-01

Current DIIS subspace size = 1
REM_GRID_RESTART_DIIS = 0

 ---------------------------------------
  Cycle       Energy         DIIS Error
 ---------------------------------------
    1    -152.7919801863      2.25E-01  00000
Finding J and K together
 Job number = 22, Threshold = 1.00E-11
Integral type ranges set in mkLRange.C for JobNum: 22  <1-6|1-6>
 MakeJK  time:  CPU       0.16 s  wall       0.16 s
Fock build time:  0.16 s (CPU) 0.16 s (wall)
DIIS Errors:  Max 5.83E-02 RMS 1.30E-02

Current DIIS subspace size = 2
REM_GRID_RESTART_DIIS = 0

    2    -152.9863429689      1.30E-02  00000
Finding J and K together
 Job number = 22, Threshold = 1.00E-11
Integral type ranges set in mkLRange.C for JobNum: 22  <1-6|1-6>
 MakeJK  time:  CPU       0.11 s  wall       0.11 s
Fock build time:  0.11 s (CPU) 0.11 s (wall)
DIIS Errors:  Max 1.74E-02 RMS 3.42E-03

Current DIIS subspace size = 3
REM_GRID_RESTART_DIIS = 0

    3    -153.0102477114      3.42E-03  00000
Finding J and K together
 Job number = 22, Threshold = 1.00E-11
Integral type ranges set in mkLRange.C for JobNum: 22  <1-6|1-6>
 MakeJK  time:  CPU       0.15 s  wall       0.16 s
Fock build time:  0.15 s (CPU) 0.16 s (wall)
DIIS Errors:  Max 6.63E-03 RMS 1.09E-03

Current DIIS subspace size = 4
REM_GRID_RESTART_DIIS = 0

    4    -153.0119335253      1.09E-03  00000
Finding J and K together
 Job number = 22, Threshold = 1.00E-11
Integral type ranges set in mkLRange.C for JobNum: 22  <1-6|1-6>
 MakeJK  time:  CPU       0.16 s  wall       0.17 s
Fock build time:  0.16 s (CPU) 0.17 s (wall)
DIIS Errors:  Max 6.32E-04 RMS 7.62E-05

Current DIIS subspace size = 5
REM_GRID_RESTART_DIIS = 0

    5    -153.0120544474      7.62E-05  00000
Finding J and K together
 Job number = 22, Threshold = 1.00E-11
Integral type ranges set in mkLRange.C for JobNum: 22  <1-6|1-6>
 MakeJK  time:  CPU       0.17 s  wall       0.17 s
Fock build time:  0.17 s (CPU) 0.17 s (wall)
DIIS Errors:  Max 1.23E-04 RMS 1.88E-05

Current DIIS subspace size = 6
REM_GRID_RESTART_DIIS = 0

    6    -153.0120561923      1.88E-05  00000
Finding J and K together
 Job number = 22, Threshold = 1.00E-11
Integral type ranges set in mkLRange.C for JobNum: 22  <1-6|1-6>
 MakeJK  time:  CPU       0.17 s  wall       0.18 s
Fock build time:  0.17 s (CPU) 0.18 s (wall)
DIIS Errors:  Max 2.99E-05 RMS 5.02E-06

Current DIIS subspace size = 7
REM_GRID_RESTART_DIIS = 0

    7    -153.0120562653      5.02E-06  00000
Finding J and K together
 Job number = 22, Threshold = 1.00E-11
Integral type ranges set in mkLRange.C for JobNum: 22  <1-6|1-6>
 MakeJK  time:  CPU       0.16 s  wall       0.17 s
Fock build time:  0.16 s (CPU) 0.17 s (wall)
DIIS Errors:  Max 5.08E-06 RMS 1.03E-06

Current DIIS subspace size = 8
REM_GRID_RESTART_DIIS = 0

    8    -153.0120562700      1.03E-06  00000
Finding J and K together
 Job number = 22, Threshold = 1.00E-11
Integral type ranges set in mkLRange.C for JobNum: 22  <1-6|1-6>
 MakeJK  time:  CPU       0.11 s  wall       0.11 s
Fock build time:  0.11 s (CPU) 0.11 s (wall)
DIIS Errors:  Max 1.49E-06 RMS 2.88E-07

Current DIIS subspace size = 9
REM_GRID_RESTART_DIIS = 0

    9    -153.0120562702      2.88E-07  00000
Finding J and K together
 Job number = 22, Threshold = 1.00E-11
Integral type ranges set in mkLRange.C for JobNum: 22  <1-6|1-6>
 MakeJK  time:  CPU       0.12 s  wall       0.12 s
Fock build time:  0.12 s (CPU) 0.12 s (wall)
DIIS Errors:  Max 4.04E-07 RMS 7.94E-08

Current DIIS subspace size = 10
REM_GRID_RESTART_DIIS = 0

   10    -153.0120562702      7.94E-08  00000
Finding J and K together
 Job number = 22, Threshold = 1.00E-11
Integral type ranges set in mkLRange.C for JobNum: 22  <1-6|1-6>
 MakeJK  time:  CPU       0.15 s  wall       0.15 s
Fock build time:  0.15 s (CPU) 0.15 s (wall)
DIIS Errors:  Max 3.85E-08 RMS 8.22E-09

Current DIIS subspace size = 11
REM_GRID_RESTART_DIIS = 0

   11    -153.0120562702      8.22E-09  00000 Convergence criterion met
 ---------------------------------------
 SCF time:  CPU 1.59 s  wall 1.61 s
 SCF   energy in the final basis set = -153.01205627
 Total energy in the final basis set = -153.01205627
drvman_main.C: 73: calling DrvMan  Calculating analytic gradient of the SCF energy
drvman.C : 218: Calculating analytic gradient of the SCF energy
drvman.C: 244: calling SCF_Grad for normal SCF gradient
 Job number = 111, Threshold = 1.00E-11
Integral type ranges set in mkLRange.C for JobNum: 11  <1-6|7-7>
Finding J and K together
 ML is being used
 Job number = 122, Threshold = 1.00E-11
Integral type ranges set in mkLRange.C for JobNum: 22  <1-6|1-6>
 MakeJK  time:  CPU       0.38 s  wall       0.38 s
 Gradient of SCF Energy
            1           2           3           4           5           6
    1  -0.0159541  -0.0172349   0.0078166  -0.0026679  -0.0243560   0.0794753
    2   0.0303992   0.0110945   0.0058519  -0.0351932   0.0117743  -0.0022141
    3   0.0016489  -0.0019758   0.0000878  -0.0056985  -0.0078246   0.0351730
            7           8           9          10
    1  -0.0152506  -0.0088217   0.0003906  -0.0033973
    2  -0.0067337  -0.0200041  -0.0080906   0.0131157
    3  -0.0097533  -0.0156390   0.0015354   0.0024461
 Max gradient component =       7.948E-02
 RMS gradient           =       2.056E-02
drvman.C: 248: out of SCF_Grad for normal SCF gradient
 Gradient time:  CPU 0.40 s  wall 0.40 s
 ------------------------------------------------------------------------------
                     drvman        : Timing summary (seconds)
 ------------------------------------------------------------------------------
     job step          cpu (% of tot)      sys (% of tot)     wall (% of tot)
 ------------------------------------------------------------------------------
 ------------------------------------------------------------------------------
   Grand Totals     0.4000E+00          0.1000E-05          0.4010E+00
 ------------------------------------------------------------------------------
drvman_main.C: 77: out of DrvMan  Time for this dynamics step: 2.0 s (CPU) 2.1 s (wall)

TIME STEP #7 (t = 120.000 a.u. = 2.90266 fs)
--------------------------------------
 Instantaneous Temperature = 293.6 K
 ----------------------------------------------------------------
             Standard Nuclear Orientation (Angstroms)
    I     Atom           X                Y                Z
 ----------------------------------------------------------------
    1      C       5.3348080819    -0.8708363321    -0.6144397144
    2      C       4.3485686677    -0.0219071919    -0.7056367337
    3      H       6.2947557269    -0.5740774495    -0.1928226322
    4      H       5.2588741697    -1.9354375719    -0.9399222565
    5      C       3.0761759464    -0.3490514496    -1.3603849008
    6      C       2.0782839345     0.4405659798    -1.3585408035
    7      H       1.1603627106     0.1285018015    -1.8738736982
    8      H       1.9963191837     1.4256900685    -0.9662336672
    9      H       4.4450513167     0.9646712728    -0.2862278459
   10      H       2.9910292779    -1.2912685351    -1.8623479995
 ----------------------------------------------------------------
 Nuclear Repulsion Energy =   105.4426277347 hartrees
 There are       15 alpha and       15 beta electrons

                       Distance Matrix (Angstroms)
             C (  1)   C (  2)   H (  3)   H (  4)   C (  5)   C (  6)
   C (  2)  1.304479
   H (  3)  1.089645  2.086987
   H (  4)  1.115832  2.131934  1.866684
   C (  5)  2.435182  1.467890  3.431194  2.730857
   C (  6)  3.588650  2.407147  4.490772  3.992091  1.272512
   H (  7)  4.473348  3.398832  5.448077  4.682938  2.040115  1.097967
   H (  8)  4.067346  2.774261  4.803519  4.684243  2.114510  1.063528
   H (  9)  2.066030  1.076360  2.407878  3.082248  2.180252  2.650685
   H ( 10)  2.688371  2.189103  3.770449  2.531589  1.070976  2.021429
             H (  7)   H (  8)   H (  9)
   H (  8)  1.790344
   H (  9)  3.742857  2.582873
[...]
 ML is being used
 Job number = 122, Threshold = 1.00E-11
Integral type ranges set in mkLRange.C for JobNum: 22  <1-6|1-6>
 MakeJK  time:  CPU       0.40 s  wall       0.40 s
 Gradient of SCF Energy
            1           2           3           4           5           6
    1   0.0225390  -0.0294288   0.0100310  -0.0018725   0.0369884  -0.0244654
    2  -0.0033057   0.0087787   0.0098310  -0.0123144  -0.0026845   0.0195433
    3  -0.0057895   0.0413938   0.0000393  -0.0219463  -0.0404918   0.0373834
            7           8           9          10
    1  -0.0250784   0.0038148   0.0034749   0.0039971
    2  -0.0103079  -0.0050436  -0.0005962  -0.0039008
    3   0.0048529  -0.0110604   0.0040186  -0.0084000
 Max gradient component =       4.139E-02
 RMS gradient           =       1.870E-02
drvman.C: 248: out of SCF_Grad for normal SCF gradient
 Gradient time:  CPU 0.42 s  wall 0.42 s
 ------------------------------------------------------------------------------
                     drvman        : Timing summary (seconds)
 ------------------------------------------------------------------------------
     job step          cpu (% of tot)      sys (% of tot)     wall (% of tot)
 ------------------------------------------------------------------------------
 ------------------------------------------------------------------------------
   Grand Totals     0.4160E+00          0.2000E-05          0.4192E+00
 ------------------------------------------------------------------------------
drvman_main.C: 77: out of DrvMan  Time for this dynamics step: 1.5 s (CPU) 1.5 s (wall)

TIME STEP #399 (t = 7960.000 a.u. = 192.54319 fs)
--------------------------------------
 Instantaneous Temperature = 275.4 K
 ----------------------------------------------------------------
             Standard Nuclear Orientation (Angstroms)
    I     Atom           X                Y                Z
 ----------------------------------------------------------------
    1      C       5.4502191902    -0.0245358131    -1.5592739979
    2      C       4.3696956238     0.0561103826    -0.7735571224
    3      H       6.4099414508     0.4282503382    -1.2891378925
    4      H       5.4074137214    -0.5068207478    -2.5687127417
    5      C       3.0484817815    -0.4734097629    -1.2503342815
    6      C       1.9547641451    -0.3651523626    -0.4613371230
    7      H       0.9382240706    -0.7908329560    -0.6519820996
    8      H       2.0836809918     0.1135168132     0.4797067705
    9      H       4.4363805788     0.4978093464     0.2110832755
   10      H       3.0454940186    -0.9552773325    -2.2368937424
 ----------------------------------------------------------------
 Nuclear Repulsion Energy =   102.9383952538 hartrees
 There are       15 alpha and       15 beta electrons

                       Distance Matrix (Angstroms)
             C (  1)   C (  2)   H (  3)   H (  4)   C (  5)   C (  6)
   C (  2)  1.338427
   H (  3)  1.095014  2.137034
   H (  4)  1.119552  2.148566  1.875295
   C (  5)  2.462778  1.501104  3.480504  2.702554
   C (  6)  3.679632  2.471202  4.600364  4.047455  1.352943
   H (  7)  4.665671  3.536537  5.641970  4.871158  2.216297  1.118438
   H (  8)  3.938284  2.607648  4.684485  4.552459  2.066002  1.063629
   H (  9)  2.105915  1.081232  2.480009  3.111182  2.237246  2.712061
   H ( 10)  2.666112  2.217604  3.759241  2.426908  1.097955  2.165766
             H (  7)   H (  8)   H (  9)
   H (  8)  1.846792
   H (  9)  3.826562  2.398965
   H ( 10)  2.641888  3.073650  3.168378

 Applying Cartesian multipole field
    Component          Value
    ---------          -----
     (2,0,0)        1.00000E-12
     (0,2,0)        2.00000E-11
     (0,0,2)       -3.00000E-11
 Nucleus-field energy     =    -0.0000000026 hartrees
 ENuRep (before)= 102.9383952538
 ENucField = -0.0000000026
 ENuRep (after) = 102.9383952512
 Job number = 2, Threshold = 1.00E-11
Integral type ranges set in mkLRange.C for JobNum: 2  <1-6|1-6>
Symmetry turned off temporarily
Symmetry turned back on
 Job number = 11, Threshold = 1.00E-11
Integral type ranges set in mkLRange.C for JobNum: 11  <1-6|7-7>
 Smallest overlap matrix eigenvalue = 1.90E-01
 Multipole matrices computed through 2nd order
 Extrapolating the Fock matrix using 12 points and a 6th-order polynomial
 Alpha Fock matrix extrapolation
 Skip SCF guess (diagonalize extrapolated Fock matrix instead)
 SCF convergence criterion is 10**(-8)
 A restricted Hartree-Fock SCF calculation will be
 performed using Pulay DIIS extrapolation
 SCF converges when DIIS error is below 1.0E-08
Extrapolated Fock matrix used in lieu of Fock build
Fock build time:  0.00 s (CPU) 0.00 s (wall)
DIIS Errors:  Max 1.30E-02 RMS 2.01E-03

Current DIIS subspace size = 1
REM_GRID_RESTART_DIIS = 0

 ---------------------------------------
  Cycle       Energy         DIIS Error
 ---------------------------------------
    1    -307.4479650329      2.01E-03  00000
Finding J and K together
 Job number = 22, Threshold = 1.00E-11
Integral type ranges set in mkLRange.C for JobNum: 22  <1-6|1-6>
 MakeJK  time:  CPU       0.20 s  wall       0.20 s
Fock build time:  0.20 s (CPU) 0.20 s (wall)
DIIS Errors:  Max 3.16E-03 RMS 3.50E-04

Current DIIS subspace size = 2
REM_GRID_RESTART_DIIS = 0

    2    -153.0104248660      3.50E-04  00000
Finding J and K together
 Job number = 22, Threshold = 1.00E-11
Integral type ranges set in mkLRange.C for JobNum: 22  <1-6|1-6>
 MakeJK  time:  CPU       0.20 s  wall       0.20 s
Fock build time:  0.20 s (CPU) 0.20 s (wall)
DIIS Errors:  Max 3.00E-04 RMS 3.61E-05

Current DIIS subspace size = 3
REM_GRID_RESTART_DIIS = 0

    3    -153.0104269459      3.61E-05  00000
Finding J and K together
 Job number = 22, Threshold = 1.00E-11
Integral type ranges set in mkLRange.C for JobNum: 22  <1-6|1-6>
 MakeJK  time:  CPU       0.20 s  wall       0.20 s
Fock build time:  0.20 s (CPU) 0.20 s (wall)
DIIS Errors:  Max 1.70E-05 RMS 2.73E-06

Current DIIS subspace size = 4
REM_GRID_RESTART_DIIS = 0

    4    -153.0104269832      2.73E-06  00000
Finding J and K together
 Job number = 22, Threshold = 1.00E-11
Integral type ranges set in mkLRange.C for JobNum: 22  <1-6|1-6>
 MakeJK  time:  CPU       0.18 s  wall       0.19 s
Fock build time:  0.18 s (CPU) 0.19 s (wall)
DIIS Errors:  Max 7.86E-06 RMS 1.49E-06

Current DIIS subspace size = 5
REM_GRID_RESTART_DIIS = 0

    5    -153.0104269843      1.49E-06  00000
Finding J and K together
 Job number = 22, Threshold = 1.00E-11
Integral type ranges set in mkLRange.C for JobNum: 22  <1-6|1-6>
 MakeJK  time:  CPU       0.20 s  wall       0.19 s
Fock build time:  0.20 s (CPU) 0.19 s (wall)
DIIS Errors:  Max 1.12E-06 RMS 2.21E-07

Current DIIS subspace size = 6
REM_GRID_RESTART_DIIS = 0

    6    -153.0104269845      2.21E-07  00000
Finding J and K together
 Job number = 22, Threshold = 1.00E-11
Integral type ranges set in mkLRange.C for JobNum: 22  <1-6|1-6>
 MakeJK  time:  CPU       0.19 s  wall       0.19 s
Fock build time:  0.19 s (CPU) 0.19 s (wall)
DIIS Errors:  Max 4.08E-07 RMS 7.86E-08

Current DIIS subspace size = 7
REM_GRID_RESTART_DIIS = 0

    7    -153.0104269845      7.86E-08  00000
Finding J and K together
 Job number = 22, Threshold = 1.00E-11
Integral type ranges set in mkLRange.C for JobNum: 22  <1-6|1-6>
 MakeJK  time:  CPU       0.18 s  wall       0.19 s
Fock build time:  0.18 s (CPU) 0.19 s (wall)
DIIS Errors:  Max 9.39E-08 RMS 1.44E-08

Current DIIS subspace size = 8
REM_GRID_RESTART_DIIS = 0

    8    -153.0104269845      1.44E-08  00000
Finding J and K together
 Job number = 22, Threshold = 1.00E-11
Integral type ranges set in mkLRange.C for JobNum: 22  <1-6|1-6>
 MakeJK  time:  CPU       0.20 s  wall       0.20 s
Fock build time:  0.20 s (CPU) 0.20 s (wall)
DIIS Errors:  Max 2.29E-08 RMS 5.23E-09

Current DIIS subspace size = 9
REM_GRID_RESTART_DIIS = 0

    9    -153.0104269845      5.23E-09  00000 Convergence criterion met
 ---------------------------------------
 SCF time:  CPU 1.56 s  wall 1.59 s
 SCF   energy in the final basis set = -153.01042698
 Total energy in the final basis set = -153.01042698
drvman_main.C: 73: calling DrvMan  Calculating analytic gradient of the SCF energy
drvman.C : 218: Calculating analytic gradient of the SCF energy
drvman.C: 244: calling SCF_Grad for normal SCF gradient
 Job number = 111, Threshold = 1.00E-11
Integral type ranges set in mkLRange.C for JobNum: 11  <1-6|7-7>
Finding J and K together
 ML is being used
 Job number = 122, Threshold = 1.00E-11
Integral type ranges set in mkLRange.C for JobNum: 22  <1-6|1-6>
 MakeJK  time:  CPU       0.46 s  wall       0.46 s
 Gradient of SCF Energy
            1           2           3           4           5           6
    1   0.0172233  -0.0266861   0.0087212  -0.0005974   0.0417699  -0.0200975
    2  -0.0009655   0.0114078   0.0094870  -0.0148346  -0.0019516   0.0263889
    3   0.0032283   0.0439843   0.0000948  -0.0284581  -0.0379338   0.0462945
            7           8           9          10
    1  -0.0303395   0.0031862   0.0042686   0.0025512
    2  -0.0138754  -0.0078641  -0.0028425  -0.0049500
    3   0.0029685  -0.0173065  -0.0009091  -0.0119628
 Max gradient component =       4.629E-02
 RMS gradient           =       2.034E-02
drvman.C: 248: out of SCF_Grad for normal SCF gradient
 Gradient time:  CPU 0.48 s  wall 0.49 s
 ------------------------------------------------------------------------------
                     drvman        : Timing summary (seconds)
 ------------------------------------------------------------------------------
     job step          cpu (% of tot)      sys (% of tot)     wall (% of tot)
 ------------------------------------------------------------------------------
 ------------------------------------------------------------------------------
   Grand Totals     0.4760E+00          0.1000E-05          0.4879E+00
 ------------------------------------------------------------------------------
drvman_main.C: 77: out of DrvMan  Time for this dynamics step: 2.1 s (CPU) 2.1 s (wall)

TIME STEP #400 (t = 7980.000 a.u. = 193.02697 fs)
--------------------------------------
 Instantaneous Temperature = 259.6 K
 ----------------------------------------------------------------
             Standard Nuclear Orientation (Angstroms)
    I     Atom           X                Y                Z
 ----------------------------------------------------------------
    1      C       5.4464002573    -0.0236626901    -1.5604098944
    2      C       4.3704889897     0.0575478285    -0.7758666595
    3      H       6.4021181073     0.4283839646    -1.2841200452
    4      H       5.4159371870    -0.5021285251    -2.5777965198
    5      C       3.0505096123    -0.4727822150    -1.2478046164
    6      C       1.9557734903    -0.3670011586    -0.4587901554
    7      H       0.9416697813    -0.8066007374    -0.6571799022
    8      H       2.0784360000     0.1086667489     0.4797348126
    9      H       4.4467955384     0.4936365067     0.2048921443
   10      H       3.0360399922    -0.9482827885    -2.2408892317
 ----------------------------------------------------------------
 Nuclear Repulsion Energy =   103.0150972690 hartrees
 There are       15 alpha and       15 beta electrons

                       Distance Matrix (Angstroms)
             C (  1)   C (  2)   H (  3)   H (  4)   C (  5)   C (  6)
   C (  2)  1.334050
   H (  3)  1.092739  2.126819
   H (  4)  1.124692  2.157116  1.874034
   C (  5)  2.457585  1.498773  3.470835  2.713851
   C (  6)  3.676401  2.472171  4.591709  4.059702  1.353581
   H (  7)  4.660624  3.538028  5.633359  4.878580  2.215283  1.122948
   H (  8)  3.939909  2.613935  4.680559  4.567328  2.065769  1.059309
   H (  9)  2.093585  1.076050  2.458597  3.110328  2.234705  2.717786
   H ( 10)  2.669796  2.222328  3.760465  2.444682  1.101148  2.163502
             H (  7)   H (  8)   H (  9)
   H (  8)  1.850007
   H (  9)  3.836625  2.415133
   H ( 10)  2.629562  3.071798  3.170364

 Applying Cartesian multipole field
    Component          Value
    ---------          -----
     (2,0,0)        1.00000E-12
     (0,2,0)        2.00000E-11
     (0,0,2)       -3.00000E-11
 Nucleus-field energy     =    -0.0000000026 hartrees
 ENuRep (before)= 103.0150972690
 ENucField = -0.0000000026
 ENuRep (after) = 103.0150972664
 Job number = 2, Threshold = 1.00E-11
Integral type ranges set in mkLRange.C for JobNum: 2  <1-6|1-6>
Symmetry turned off temporarily
Symmetry turned back on
 Job number = 11, Threshold = 1.00E-11
Integral type ranges set in mkLRange.C for JobNum: 11  <1-6|7-7>
 Smallest overlap matrix eigenvalue = 1.88E-01
 Multipole matrices computed through 2nd order
 Extrapolating the Fock matrix using 12 points and a 6th-order polynomial
 Alpha Fock matrix extrapolation
 Skip SCF guess (diagonalize extrapolated Fock matrix instead)
 SCF convergence criterion is 10**(-8)
 A restricted Hartree-Fock SCF calculation will be
 performed using Pulay DIIS extrapolation
 SCF converges when DIIS error is below 1.0E-08
Extrapolated Fock matrix used in lieu of Fock build
Fock build time:  0.00 s (CPU) 0.00 s (wall)
DIIS Errors:  Max 1.05E-02 RMS 1.59E-03

Current DIIS subspace size = 1
REM_GRID_RESTART_DIIS = 0

 ---------------------------------------
  Cycle       Energy         DIIS Error
 ---------------------------------------
    1    -307.5492003085      1.59E-03  00000
Finding J and K together
 Job number = 22, Threshold = 1.00E-11
Integral type ranges set in mkLRange.C for JobNum: 22  <1-6|1-6>
 MakeJK  time:  CPU       0.18 s  wall       0.18 s
Fock build time:  0.18 s (CPU) 0.18 s (wall)
DIIS Errors:  Max 2.95E-03 RMS 3.31E-04

Current DIIS subspace size = 2
REM_GRID_RESTART_DIIS = 0

    2    -153.0099499193      3.31E-04  00000
Finding J and K together
 Job number = 22, Threshold = 1.00E-11
Integral type ranges set in mkLRange.C for JobNum: 22  <1-6|1-6>
 MakeJK  time:  CPU       0.14 s  wall       0.14 s
Fock build time:  0.14 s (CPU) 0.15 s (wall)
DIIS Errors:  Max 3.48E-04 RMS 4.11E-05

Current DIIS subspace size = 3
REM_GRID_RESTART_DIIS = 0

    3    -153.0099517331      4.11E-05  00000
Finding J and K together
 Job number = 22, Threshold = 1.00E-11
Integral type ranges set in mkLRange.C for JobNum: 22  <1-6|1-6>
 MakeJK  time:  CPU       0.13 s  wall       0.13 s
Fock build time:  0.13 s (CPU) 0.13 s (wall)
DIIS Errors:  Max 1.59E-05 RMS 2.37E-06

Current DIIS subspace size = 4
REM_GRID_RESTART_DIIS = 0

    4    -153.0099517736      2.37E-06  00000
Finding J and K together
 Job number = 22, Threshold = 1.00E-11
Integral type ranges set in mkLRange.C for JobNum: 22  <1-6|1-6>
 MakeJK  time:  CPU       0.12 s  wall       0.12 s
Fock build time:  0.12 s (CPU) 0.12 s (wall)
DIIS Errors:  Max 6.78E-06 RMS 1.30E-06

Current DIIS subspace size = 5
REM_GRID_RESTART_DIIS = 0

    5    -153.0099517744      1.30E-06  00000
Finding J and K together
 Job number = 22, Threshold = 1.00E-11
Integral type ranges set in mkLRange.C for JobNum: 22  <1-6|1-6>
 MakeJK  time:  CPU       0.12 s  wall       0.12 s
Fock build time:  0.12 s (CPU) 0.13 s (wall)
DIIS Errors:  Max 9.64E-07 RMS 1.87E-07

Current DIIS subspace size = 6
REM_GRID_RESTART_DIIS = 0

    6    -153.0099517746      1.87E-07  00000
Finding J and K together
 Job number = 22, Threshold = 1.00E-11
Integral type ranges set in mkLRange.C for JobNum: 22  <1-6|1-6>
 MakeJK  time:  CPU       0.16 s  wall       0.16 s
Fock build time:  0.16 s (CPU) 0.16 s (wall)
DIIS Errors:  Max 3.38E-07 RMS 6.76E-08

Current DIIS subspace size = 7
REM_GRID_RESTART_DIIS = 0

    7    -153.0099517746      6.76E-08  00000
Finding J and K together
 Job number = 22, Threshold = 1.00E-11
Integral type ranges set in mkLRange.C for JobNum: 22  <1-6|1-6>
 MakeJK  time:  CPU       0.12 s  wall       0.12 s
Fock build time:  0.12 s (CPU) 0.12 s (wall)
DIIS Errors:  Max 8.46E-08 RMS 1.16E-08

Current DIIS subspace size = 8
REM_GRID_RESTART_DIIS = 0

    8    -153.0099517746      1.16E-08  00000
Finding J and K together
 Job number = 22, Threshold = 1.00E-11
Integral type ranges set in mkLRange.C for JobNum: 22  <1-6|1-6>
 MakeJK  time:  CPU       0.16 s  wall       0.16 s
Fock build time:  0.16 s (CPU) 0.16 s (wall)
DIIS Errors:  Max 1.68E-08 RMS 3.73E-09

Current DIIS subspace size = 9
REM_GRID_RESTART_DIIS = 0

    9    -153.0099517746      3.73E-09  00000 Convergence criterion met
 ---------------------------------------
 SCF time:  CPU 1.16 s  wall 1.16 s
 SCF   energy in the final basis set = -153.00995177
 Total energy in the final basis set = -153.00995177
drvman_main.C: 73: calling DrvMan  Calculating analytic gradient of the SCF energy
drvman.C : 218: Calculating analytic gradient of the SCF energy
drvman.C: 244: calling SCF_Grad for normal SCF gradient
 Job number = 111, Threshold = 1.00E-11
Integral type ranges set in mkLRange.C for JobNum: 11  <1-6|7-7>
Finding J and K together
 ML is being used
 Job number = 122, Threshold = 1.00E-11
Integral type ranges set in mkLRange.C for JobNum: 22  <1-6|1-6>
 MakeJK  time:  CPU       0.41 s  wall       0.41 s
 Gradient of SCF Energy
            1           2           3           4           5           6
    1   0.0118410  -0.0229077   0.0066063   0.0008829   0.0453476  -0.0176974
    2   0.0006243   0.0136576   0.0086978  -0.0160302  -0.0015501   0.0309023
    3   0.0105074   0.0453357  -0.0001164  -0.0323477  -0.0353007   0.0517829
            7           8           9          10
    1  -0.0328938   0.0028136   0.0049042   0.0011032
    2  -0.0163769  -0.0095393  -0.0048415  -0.0055439
    3   0.0015428  -0.0213125  -0.0053910  -0.0147007
 Max gradient component =       5.178E-02
 RMS gradient           =       2.155E-02
drvman.C: 248: out of SCF_Grad for normal SCF gradient
 Gradient time:  CPU 0.42 s  wall 0.42 s
 ------------------------------------------------------------------------------
                     drvman        : Timing summary (seconds)
 ------------------------------------------------------------------------------
     job step          cpu (% of tot)      sys (% of tot)     wall (% of tot)
 ------------------------------------------------------------------------------
 ------------------------------------------------------------------------------
   Grand Totals     0.4240E+00          0.2000E-05          0.4228E+00
 ------------------------------------------------------------------------------
drvman_main.C: 77: out of DrvMan  Time for this dynamics step: 1.6 s (CPU) 1.6 s (wall)

=============== TIME STEPS COMPLETED ==================

Step-to-Step energy fluctuations, |E(n) - E(n-1)|
Mean: 1.996e-07   Max: 4.519e-05   RMS: 1.747e-05
Overall energy fluctuations, |E(n) - E(0)|
Mean: 5.757e-05   Max: 1.300e-04   RMS: 2.858e-05   RMS(dE)/RMS(dV): 1.199e-02
Kinetic energy fluctuations, |T(n) - V(0)|
Mean: -5.738e-03   Max: 1.241e-02   RMS: 2.363e-03
Potential energy fluctuations, |V(n) - V(0)|
Mean: 5.796e-03   Max: 1.254e-02   RMS: 2.383e-03


 JobOver = TRUE
Archival summary:
1\1\qciep03\JobtypUnspecified\HF\STO-3G\46\jcartus\MonJun1812:05:292018MonJun1812:05:292018\0\\#,JobtypUnspecified,HF,STO-3G,\\0,1\C\H,1,1.07605\C,1,1.33405,2,120.231\H,3,1.09274,1,122.106,2,-6.09338,0\H,3,1.12469,1,122.414,2,177.962,0\C,1,1.49877,2,119.528,3,179.273,0\H,6,1.10115,1,116.638,2,-177.409,0\C,6,1.35358,1,120.072,2,1.91675,0\H,8,1.05931,6,117.251,1,0.693921,0\H,8,1.12295,6,126.641,1,-173.891,0\\HF=-153.009952\\@

 Total job time:  718.98s(wall), 701.40s(cpu) 
 Mon Jun 18 12:05:29 2018

        *************************************************************
        *                                                           *
        *  Thank you very much for using Q-Chem.  Have a nice day.  *
        *                                                           *
        *************************************************************


*** MISSION COMPLETED -- STARFLEET OUT ***

0 sent ACK to 0 
now end server 0 ... 
