Process 0 of 1 is on qciep03 - thread support 0
initial socket setup ...start
initial socket setup ...done 
now start server 0 ... 
qciep03.tugraz.at 127.0.1
Q-Chem Developer Version! Running on 127.0.1.*
                  Welcome to Q-Chem
     A Quantum Leap Into The Future Of Chemistry


 Q-Chem 5.0, Q-Chem, Inc., Pleasanton, CA (2017)

 Yihan Shao,  Zhengting Gan,  E. Epifanovsky,  A. T. B. Gilbert,  M. Wormit,  
 J. Kussmann,  A. W. Lange,  A. Behn,  Jia Deng,  Xintian Feng,  D. Ghosh,  
 M. Goldey,  P. R. Horn,  L. D. Jacobson,  I. Kaliman,  T. Kus,  A. Landau,  
 Jie Liu,  E. I. Proynov,  R. M. Richard,  R. P. Steele,  E. J. Sundstrom,  
 H. L. Woodcock III,  P. M. Zimmerman,  D. Zuev,  B. Albrecht,  E. Alguire,  
 S. A. Baeppler,  D. Barton,  Z. Benda,  Y. A. Bernard,  E. J. Berquist,  
 K. B. Bravaya,  H. Burton,  D. Casanova,  Chun-Min Chang,  Yunqing Chen,  
 A. Chien,  K. D. Closser,  M. P. Coons,  S. Dasgupta,  A. L. Dempwolff,  
 M. Diedenhofen,  Hainam Do,  R. G. Edgar,  Po-Tung Fang,  S. Fatehi,  
 Qingguo Feng,  J. Fosso-Tande,  Qinghui Ge,  A. Ghysels,  G. Gidofalvi,  
 J. Gomes,  J. Gonthier,  A. Gunina,  M. W. D. Hanson-Heine,  
 P. H. P. Harbach,  A. W. Hauser,  J. E. Herr,  E. G. Hohenstein,  
 Z. C. Holden,  Kerwin Hui,  T.-C. Jagau,  Hyunjun Ji,  B. Kaduk,  
 K. Khistyaev,  Jaehoon Kim,  P. Klunzinger,  K. Koh,  D. Kosenkov,  
 L. Koulias,  T. Kowalczyk,  C. M. Krauter,  A. Kunitsa,  Ka Un Lao,  
 A. Laurent,  K. V. Lawler,  Joonho Lee,  D. Lefrancois,  S. Lehtola,  
 D. S. Levine,  Yi-Pei Li,  You-Sheng Lin,  Fenglai Liu,  E. Livshits,  
 A. Luenser,  P. Manohar,  E. Mansoor,  S. F. Manzer,  Shan-Ping Mao,  
 Yuezhi Mao,  N. Mardirossian,  A. V. Marenich,  T. Markovich,  
 L. A. Martinez-Martinez,  S. A. Maurer,  N. J. Mayhall,  S. C. McKenzie,  
 J.-M. Mewes,  A. F. Morrison,  J. W. Mullinax,  K. Nanda,  
 T. S. Nguyen-Beck,  R. Olivares-Amaya,  J. A. Parkhill,  T. M. Perrine,  
 F. Plasser,  S. Prager,  A. Prociuk,  E. Ramos,  D. R. Rehn,  F. Rob,  
 M. Schneider,  N. Sergueev,  S. M. Sharada,  S. Sharma,  D. W. Small,  
 T. Stauch,  T. Stein,  Yu-Chuan Su,  A. J. W. Thom,  A. Tkatchenko,  
 T. Tsuchimochi,  L. Vogt,  O. Vydrov,  M. A. Watson,  J. Wenzel,  
 M. de Wergifosse,  T. A. Wesolowski,  A. White,  J. Witte,  A. Yamada,  
 Jun Yang,  K. Yao,  S. Yeganeh,  S. R. Yost,  Zhi-Qiang You,  A. Zech,  
 Igor Ying Zhang,  Xing Zhang,  Yan Zhao,  Ying Zhu,  B. R. Brooks,  
 G. K. L. Chan,  C. J. Cramer,  M. S. Gordon,  W. J. Hehre,  A. Klamt,  
 M. W. Schmidt,  C. D. Sherrill,  D. G. Truhlar,  A. Aspuru-Guzik,  R. Baer,  
 A. T. Bell,  N. A. Besley,  Jeng-Da Chai,  R. A. DiStasio Jr.,  A. Dreuw,  
 B. D. Dunietz,  T. R. Furlani,  Chao-Ping Hsu,  Yousung Jung,  Jing Kong,  
 D. S. Lambrecht,  WanZhen Liang,  C. Ochsenfeld,  V. A. Rassolov,  
 L. V. Slipchenko,  J. E. Subotnik,  T. Van Voorhis,  J. M. Herbert,  
 A. I. Krylov,  P. M. W. Gill,  M. Head-Gordon

 Contributors to earlier versions of Q-Chem not listed above: 
 R. D. Adamson,  B. Austin,  J. Baker,  G. J. O. Beran,  K. Brandhorst,  
 S. T. Brown,  E. F. C. Byrd,  A. K. Chakraborty,  C.-L. Cheng,  
 Siu Hung Chien,  D. M. Chipman,  D. L. Crittenden,  H. Dachsel,  
 R. J. Doerksen,  A. D. Dutoi,  L. Fusti-Molnar,  W. A. Goddard III,  
 A. Golubeva-Zadorozhnaya,  S. R. Gwaltney,  G. Hawkins,  A. Heyden,  
 S. Hirata,  G. Kedziora,  F. J. Keil,  C. Kelley,  Jihan Kim,  R. A. King,  
 R. Z. Khaliullin,  P. P. Korambath,  W. Kurlancheek,  A. M. Lee,  M. S. Lee,  
 S. V. Levchenko,  Ching Yeh Lin,  D. Liotard,  R. C. Lochan,  I. Lotan,  
 P. E. Maslen,  N. Nair,  D. P. O'Neill,  D. Neuhauser,  E. Neuscamman,  
 C. M. Oana,  R. Olson,  B. Peters,  R. Peverati,  P. A. Pieniazek,  
 Y. M. Rhee,  J. Ritchie,  M. A. Rohrdanz,  E. Rosta,  N. J. Russ,  
 H. F. Schaefer III,  N. E. Schultz,  N. Shenvi,  A. C. Simmonett,  A. Sodt,  
 D. Stuck,  K. S. Thanthiriwatte,  V. Vanovschi,  Tao Wang,  A. Warshel,  
 C. F. Williams,  Q. Wu,  X. Xu,  W. Zhang

 Please cite Q-Chem as follows:
 Y. Shao et al., Mol. Phys. 113, 184-215 (2015)
 DOI: 10.1080/00268976.2014.952696

 Q-Chem 5.0.2 for Intel X86 EM64T Linux

 Parts of Q-Chem use Armadillo 5.200.1 (Boston Tea Smuggler).
 http://arma.sourceforge.net/

 Q-Chem begins on Mon Jun 18 11:53:29 2018  


Host: 0

     Scratch files written to /home/jcartus/scratch/Butadien_2.mol.dir//
 Using version located at /usr/local/qchem/bin/qchem

 Parallel job on  1  processors
Symmetry disabled for AIMD jobs.

Total Memory Limit in MB = 2000
Mega-Array Size in MB = 192

Checking the input file for inconsistencies... 	...done.
Finally everything over in PARseQInput

--------------------------------------------------------------
User input:
--------------------------------------------------------------
$rem
AIMD_STEPS                    400
FOCK_EXTRAP_POINTS            12
MAX_SCF_CYCLES                100
BASIS                         sto-3g
AIMD_INIT_VELOC               thermal
FOCK_EXTRAP_ORDER             6
AIMD_TEMP                     400
AIMD_METHOD                   bomd
TIME_STEP                     20
METHOD                        hf
JOBTYPE                       aimd
$end

$molecule
0 1
C    3.88796    -0.78675    -0.73885
C    4.32777    0.24646    -1.65961
H    3.23907    -2.09099    -1.05760
H    4.22100    -0.68063    0.82737
C    4.72505    0.58228    -3.26352
C    3.20559    -0.05566    -3.54693
H    3.63596    0.02542    -4.52148
H    2.38951    -0.35589    -3.32784
H    5.14891    1.11220    -0.52430
H    5.58408    0.80566    -3.91104
$end


--------------------------------------------------------------
 ----------------------------------------------------------------
             Standard Nuclear Orientation (Angstroms)
    I     Atom           X                Y                Z
 ----------------------------------------------------------------
    1      C       3.8879600000    -0.7867500000    -0.7388500000
    2      C       4.3277700000     0.2464600000    -1.6596100000
    3      H       3.2390700000    -2.0909900000    -1.0576000000
    4      H       4.2210000000    -0.6806300000     0.8273700000
    5      C       4.7250500000     0.5822800000    -3.2635200000
    6      C       3.2055900000    -0.0556600000    -3.5469300000
    7      H       3.6359600000     0.0254200000    -4.5214800000
    8      H       2.3895100000    -0.3558900000    -3.3278400000
    9      H       5.1489100000     1.1122000000    -0.5243000000
   10      H       5.5840800000     0.8056600000    -3.9110400000
 ----------------------------------------------------------------
 Nuclear Repulsion Energy =    94.4888662479 hartrees
 There are       15 alpha and       15 beta electrons
 Requested basis set is STO-3G
 There are 14 shells and 26 basis functions

 Total QAlloc Memory Limit   2000 MB
 Mega-Array Size       188 MB
 MEM_STATIC part       192 MB

finished with qalloc call

                       Distance Matrix (Angstroms)
             C (  1)   C (  2)   H (  3)   H (  4)   C (  5)   C (  6)
   C (  2)  1.452155
   H (  3)  1.491208  2.647897
   H (  4)  1.604750  2.656307  2.550767
   C (  5)  2.991475  1.686159  3.771020  4.310962
   C (  6)  2.980845  2.216425  3.215657  4.533889  1.672139
   H (  7)  3.877037  2.952585  4.078624  5.426875  1.754615  1.068429
   H (  8)  3.022228  2.627293  2.980992  4.552536  2.517746  0.896730
   H (  9)  2.289550  1.647029  3.767270  2.429458  2.822020  3.778450
   H ( 10)  3.933876  2.638173  4.693802  5.149716  1.098687  2.555712
             H (  7)   H (  8)   H (  9)
   H (  8)  1.767431
   H (  9)  4.409938  4.198739
   H ( 10)  2.185540  3.448855  3.428316

 Job number = 2, Threshold = 1.00E-11
Integral type ranges set in mkLRange.C for JobNum: 2  <1-6|1-6>
Symmetry turned off temporarily
 Using the largest function pair in Schwarz integrals
Total number of integrals generated =            3252
Symmetry turned back on
 A cutoff of  1.0D-11 yielded    102 shell pairs
 There are       372 function pairs
 Job number = 11, Threshold = 1.00E-11
Integral type ranges set in mkLRange.C for JobNum: 11  <1-6|7-7>
Total number of integrals generated =            3720
 Smallest overlap matrix eigenvalue = 1.91E-01
 Multipole matrices computed through 2nd order

 Scale SEOQF with 1.000000e-02/1.000000e-01/1.000000e-01

 Standard Electronic Orientation quadrupole field applied
 Nucleus-field energy     =    -0.0000000196 hartrees
 ENuRep (before)= 94.4888662479
 ENucField = -0.0000000196
 ENuRep (after) = 94.4888662284
 Guess from superposition of atomic densities
 Warning:  Energy on first SCF cycle will be non-variational
 SAD guess density has 30.000000 electrons

 ==================================================
    GEN_SCFMAN: A general SCF calculation manager  
                                                   
    Authors:                                       
        -- Eric Jon Sundstrom 2008-2014            
        -- Paul Horn 2010-2015                     
        -- Yuezhi Mao 2012-                        
        -- Dmitri Zuev 2014                        
        -- Alec White 2015-                        
        -- David Stuck 2015                        
        -- Shaama M.S. 2015                        
        -- Shane Yost 2015-                         
        -- Joonho Lee 2016-                        
        -- David Small 2016-                       
        -- Daniel Levine 2016-                     
        -- Susi Lehtola 2017-                      
        -- Hugh Burton 2017-                       
 ==================================================
 Hartree-Fock
Finding J and K together
 Job number = 22, Threshold = 1.00E-11
Integral type ranges set in mkLRange.C for JobNum: 22  <1-6|1-6>
 MakeJK  time:  CPU       0.10 s  wall       0.10 s
 A restricted SCF calculation will be
 performed using DIIS
 SCF converges when DIIS error is below 1.0e-08
 ---------------------------------------
  Cycle       Energy         DIIS error
 ---------------------------------------
Finding J and K together
 Job number = 22, Threshold = 1.00E-11
Integral type ranges set in mkLRange.C for JobNum: 22  <1-6|1-6>
 MakeJK  time:  CPU       0.10 s  wall       0.10 s
    1    -151.1612082935      1.51e-01  
Finding J and K together
 Job number = 22, Threshold = 1.00E-11
Integral type ranges set in mkLRange.C for JobNum: 22  <1-6|1-6>
 MakeJK  time:  CPU       0.10 s  wall       0.10 s
    2    -152.2185846193      1.91e-02  
Finding J and K together
 Job number = 22, Threshold = 1.00E-11
Integral type ranges set in mkLRange.C for JobNum: 22  <1-6|1-6>
 MakeJK  time:  CPU       0.10 s  wall       0.10 s
    3    -152.2743345746      1.43e-02  
Finding J and K together
 Job number = 22, Threshold = 1.00E-11
Integral type ranges set in mkLRange.C for JobNum: 22  <1-6|1-6>
 MakeJK  time:  CPU       0.10 s  wall       0.10 s
    4    -152.2949265246      4.75e-03  
Finding J and K together
 Job number = 22, Threshold = 1.00E-11
Integral type ranges set in mkLRange.C for JobNum: 22  <1-6|1-6>
 MakeJK  time:  CPU       0.10 s  wall       0.10 s
    5    -152.2986274361      1.14e-03  
Finding J and K together
 Job number = 22, Threshold = 1.00E-11
Integral type ranges set in mkLRange.C for JobNum: 22  <1-6|1-6>
 MakeJK  time:  CPU       0.16 s  wall       0.16 s
    6    -152.2988868853      3.80e-04  
Finding J and K together
 Job number = 22, Threshold = 1.00E-11
Integral type ranges set in mkLRange.C for JobNum: 22  <1-6|1-6>
 MakeJK  time:  CPU       0.16 s  wall       0.16 s
    7    -152.2989362123      2.37e-04  
Finding J and K together
 Job number = 22, Threshold = 1.00E-11
Integral type ranges set in mkLRange.C for JobNum: 22  <1-6|1-6>
 MakeJK  time:  CPU       0.15 s  wall       0.15 s
    8    -152.2989619233      1.35e-04  
Finding J and K together
 Job number = 22, Threshold = 1.00E-11
Integral type ranges set in mkLRange.C for JobNum: 22  <1-6|1-6>
 MakeJK  time:  CPU       0.15 s  wall       0.15 s
    9    -152.2989707730      8.38e-05  
Finding J and K together
 Job number = 22, Threshold = 1.00E-11
Integral type ranges set in mkLRange.C for JobNum: 22  <1-6|1-6>
 MakeJK  time:  CPU       0.14 s  wall       0.15 s
   10    -152.2989747751      2.06e-05  
Finding J and K together
 Job number = 22, Threshold = 1.00E-11
Integral type ranges set in mkLRange.C for JobNum: 22  <1-6|1-6>
 MakeJK  time:  CPU       0.14 s  wall       0.14 s
   11    -152.2989750475      7.32e-06  
Finding J and K together
 Job number = 22, Threshold = 1.00E-11
Integral type ranges set in mkLRange.C for JobNum: 22  <1-6|1-6>
 MakeJK  time:  CPU       0.16 s  wall       0.16 s
   12    -152.2989750847      3.44e-06  
Finding J and K together
 Job number = 22, Threshold = 1.00E-11
Integral type ranges set in mkLRange.C for JobNum: 22  <1-6|1-6>
 MakeJK  time:  CPU       0.13 s  wall       0.13 s
   13    -152.2989750966      1.77e-06  
Finding J and K together
 Job number = 22, Threshold = 1.00E-11
Integral type ranges set in mkLRange.C for JobNum: 22  <1-6|1-6>
 MakeJK  time:  CPU       0.16 s  wall       0.18 s
   14    -152.2989751001      6.25e-07  
Finding J and K together
 Job number = 22, Threshold = 1.00E-11
Integral type ranges set in mkLRange.C for JobNum: 22  <1-6|1-6>
 MakeJK  time:  CPU       0.16 s  wall       0.17 s
   15    -152.2989751004      1.34e-07  
Finding J and K together
 Job number = 22, Threshold = 1.00E-11
Integral type ranges set in mkLRange.C for JobNum: 22  <1-6|1-6>
 MakeJK  time:  CPU       0.16 s  wall       0.17 s
   16    -152.2989751004      2.43e-08  
   17    -152.2989751004      4.13e-09  Convergence criterion met
 ---------------------------------------
 SCF time:   CPU 2.29s  wall 2.00s 
 Total energy in the final basis set =     -152.2989751004
Wall  1 = 2
Clock 1 = 2.2892389297
 ==================================================
                  Done GEN_SCFMAN                  
 ==================================================

Symmetry turned off temporarily

 --------------------------------------------------------------

                    Orbital Energies (a.u.)
 --------------------------------------------------------------

 Alpha MOs
 -- Occupied --
-11.052 -11.030 -11.025 -11.019  -0.962  -0.864  -0.786  -0.619
 -0.601  -0.493  -0.410  -0.363  -0.309  -0.229  -0.218
 -- Virtual --
  0.192   0.260   0.308   0.351   0.417   0.432   0.525   0.698
  0.766   0.912   1.061
 --------------------------------------------------------------

          Ground-State Mulliken Net Atomic Charges

     Atom                 Charge (a.u.)
  ----------------------------------------
      1 C                    -0.030033
      2 C                     0.006622
      3 H                    -0.000887
      4 H                     0.022276
      5 C                    -0.037367
      6 C                    -0.187109
      7 H                     0.080992
      8 H                     0.117932
      9 H                    -0.089042
     10 H                     0.116617
  ----------------------------------------
  Sum of atomic charges =     0.000000

 -----------------------------------------------------------------
                    Cartesian Multipole Moments
 -----------------------------------------------------------------
    Charge (ESU x 10^10)
                 0.0000
    Dipole Moment (Debye)
         X       0.0673      Y      -0.3676      Z      -1.6959
       Tot       1.7366
    Quadrupole Moments (Debye-Ang)
        XX     -22.3074     XY      -0.4838     YY     -24.9822
        XZ      -8.7992     YZ      -0.4737     ZZ     -14.3876
    Octopole Moments (Debye-Ang^2)
       XXX    -273.6643    XXY       3.4094    XYY    -101.8937
       YYY       0.6240    XXZ       3.2203    XYZ      -6.1985
       YYZ      54.9436    XZZ     -45.3413    YZZ       5.2064
       ZZZ     123.8541
    Hexadecapole Moments (Debye-Ang^3)
      XXXX   -2302.9050   XXXY      23.7376   XXYY    -442.9584
      XYYY     -15.1073   YYYY     -80.2901   XXXZ     344.9370
      XXYZ     -36.9890   XYYZ     218.7498   YYYZ      28.3834
      XXZZ    -285.2776   XYZZ      30.2742   YYZZ    -183.5138
      XZZZ     429.4563   YZZZ       0.1966   ZZZZ    -851.0478
 -----------------------------------------------------------------
drvman_main.C: 73: calling DrvMan  Calculating analytic gradient of the SCF energy
drvman.C : 218: Calculating analytic gradient of the SCF energy
drvman.C: 244: calling SCF_Grad for normal SCF gradient
 Job number = 111, Threshold = 1.00E-11
Integral type ranges set in mkLRange.C for JobNum: 11  <1-6|7-7>
Finding J and K together
 ML is being used
 Job number = 122, Threshold = 1.00E-11
Integral type ranges set in mkLRange.C for JobNum: 22  <1-6|1-6>
Total number of integrals generated =           70083
 MakeJK  time:  CPU       0.36 s  wall       0.36 s
 Gradient of SCF Energy
            1           2           3           4           5           6
    1  -0.0094194  -0.1503563  -0.0619056   0.0398656   0.2968607  -0.5183815
    2   0.0328931  -0.0270054  -0.1314767   0.0066661   0.1296871  -0.1968664
    3  -0.0037965  -0.1727433  -0.0266584   0.1539517  -0.1761809   0.1657048
            7           8           9          10
    1   0.0784294   0.2426248   0.0694696   0.0128128
    2   0.0345849   0.0822460   0.0608534   0.0084179
    3   0.0551567  -0.0928860   0.1065997  -0.0091477
 Max gradient component =       5.184E-01
 RMS gradient           =       1.503E-01
drvman.C: 248: out of SCF_Grad for normal SCF gradient
 Gradient time:  CPU 0.38 s  wall 0.38 s
 ------------------------------------------------------------------------------
                     drvman        : Timing summary (seconds)
 ------------------------------------------------------------------------------
     job step          cpu (% of tot)      sys (% of tot)     wall (% of tot)
 ------------------------------------------------------------------------------
 ------------------------------------------------------------------------------
   Grand Totals     0.3800E+00          0.2000E-05          0.3803E+00
 ------------------------------------------------------------------------------
drvman_main.C: 77: out of DrvMan =======================================================
            AB INITIO MOLECULAR DYNAMICS
=======================================================
Directory /home/jcartus/scratch/Butadien_2.mol.dir/AIMD already exists
AIMD will take 400 BOMD steps Velocity Verlet integration
Time step = 20.00000 a.u. ( = 0.48378 fs)
Total simulation time requested = 193.511 fs
Integral threshold = 10**(-11)
SCF convergence threshold = 10**(-8)
Generating viewable xyz trajectory,
 file (in Angstroms) at AIMD/View.xyz
Choosing nuclear velocities from Maxwell-Boltzmann
Velocities sampled from Maxwell-Boltzmann at T = 400.0 K
sqrt(kT/m) and (vx,vy,vz) for each atom:
  1   2.4064e-04  -1.44e-04   3.45e-04  -2.66e-04 
  2   2.4064e-04   1.28e-05   1.43e-04   8.08e-05 
  3   8.3036e-04   1.12e-03   8.92e-04  -7.88e-04 
  4   8.3036e-04   1.36e-04  -9.00e-04   5.04e-04 
  5   2.4064e-04  -6.52e-05   1.43e-04  -5.34e-05 
  6   2.4064e-04   5.31e-04  -3.50e-04   5.45e-04 
  7   8.3036e-04   5.84e-04  -6.34e-04   1.85e-04 
  8   8.3036e-04  -6.01e-04  -6.09e-04  -3.87e-04 
  9   8.3036e-04   5.62e-04   5.83e-05   7.81e-04 
 10   8.3036e-04   2.91e-04   1.16e-03  -1.71e-04 
T(nuclear) = 0.01774031 a.u.
v(c.o.m.) = (  1.1340e-04,   6.1702e-05,   7.0259e-05)
T(c.o.m.) = 1.06416e-03 a.u.
kT/2 = 0.000633 a.u.
Tx   = 0.005543 a.u.
Ty   = 0.006516 a.u.
Tz   = 0.005681 a.u.
Mean velocities (a.u.):   2.4259e-04   2.4948e-05   4.2978e-05
Removing c.o.m. velocity
T(nuclear) = 0.01819670 a.u.
v(c.o.m.) = ( -5.6344e-21,  -1.8030e-20,   1.1269e-20)
T(c.o.m.) = 2.38333e-35 a.u.
kT   = 0.001267 a.u. = 0.79 kcal/mol
Tx   = 0.004985 a.u. = 3.13 kcal/mol
Ty   = 0.007002 a.u. = 4.39 kcal/mol
Tz   = 0.006210 a.u. = 3.90 kcal/mol
Initial velocities in m/s
  1     -4.2624e+02      6.9404e+02     -6.5132e+02 
  2     -8.3788e+01      2.5196e+02      1.0764e+02 
  3      1.1189e+03      1.2270e+03     -2.5482e+03 
  4     -1.0324e+03     -2.6918e+03      2.7858e+02 
  5     -2.5439e+02      2.5102e+02     -1.8611e+02 
  6      1.0507e+03     -8.2654e+02      1.1224e+03 
  7     -5.3193e+01     -2.1119e+03     -4.2053e+02 
  8     -2.6457e+03     -2.0569e+03     -1.6699e+03 
  9     -1.0152e+02     -5.9628e+02      8.8323e+02 
 10     -6.9459e+02      1.8186e+03     -1.1981e+03 
----------------------------------------------------------------------------
       Nuclear coordinates (Angst) and velocities (a.u.)
----------------------------------------------------------------------------
             x        y        z            v_x         v_y        v_z
----------------------------------------------------------------------------
1      C    3.8880  -0.7867  -0.7389    -1.9483e-04   3.1725e-04  -2.9772e-04
2      C    4.3278   0.2465  -1.6596    -3.8300e-05   1.1517e-04   4.9201e-05
3      H    3.2391  -2.0910  -1.0576     5.1147e-04   5.6086e-04  -1.1648e-03
4      H    4.2210  -0.6806   0.8274    -4.7189e-04  -1.2304e-03   1.2734e-04
5      C    4.7251   0.5823  -3.2635    -1.1628e-04   1.1474e-04  -8.5073e-05
6      C    3.2056  -0.0557  -3.5469     4.8026e-04  -3.7781e-04   5.1306e-04
7      H    3.6360   0.0254  -4.5215    -2.4315e-05  -9.6534e-04  -1.9223e-04
8      H    2.3895  -0.3559  -3.3278    -1.2093e-03  -9.4020e-04  -7.6333e-04
9      H    5.1489   1.1122  -0.5243    -4.6403e-05  -2.7256e-04   4.0373e-04
10     H    5.5841   0.8057  -3.9110    -3.1750e-04   8.3129e-04  -5.4767e-04
----------------------------------------------------------------------------
Write nuclear velocities every 1 time steps

TIME STEP #1 (t = 0.000 a.u. = 0.00000 fs)
--------------------------------------
 Instantaneous Temperature = 383.1 K
 ----------------------------------------------------------------
             Standard Nuclear Orientation (Angstroms)
    I     Atom           X                Y                Z
 ----------------------------------------------------------------
    1      C       3.8859435319    -0.7835515541    -0.7419825468
    2      C       4.3280921153     0.2478095826    -1.6582534967
    3      H       3.2480494526    -2.0774799377    -1.0683916387
    4      H       4.2137091338    -0.6940362663     0.8198488302
    5      C       4.7223830439     0.5828669162    -3.2635679605
    6      C       3.2131809634    -0.0587061117    -3.5423017192
    7      H       3.6311844948     0.0132108762    -4.5266919004
    8      H       2.3627336947    -0.3705786770    -3.3305677135
    9      H       5.1444168759     1.1058096882    -0.5261681386
   10      H       5.5799815951     0.8139730626    -3.9163093171
 ----------------------------------------------------------------
 Nuclear Repulsion Energy =    94.5092852681 hartrees
 There are       15 alpha and       15 beta electrons

                       Distance Matrix (Angstroms)
             C (  1)   C (  2)   H (  3)   H (  4)   C (  5)   C (  6)
   C (  2)  1.448708
   H (  3)  1.479088  2.630855
   H (  4)  1.598362  2.653516  2.532166
   C (  5)  2.987495  1.686643  3.750987  4.308541
   C (  6)  2.969814  2.210569  3.193258  4.520294  1.663430
   H (  7)  3.876049  2.961192  4.059264  5.424484  1.763719  1.071878
   H (  8)  3.031747  2.653615  2.968962  4.555951  2.545878  0.930245
   H (  9)  2.280355  1.638343  3.744803  2.432576  2.818677  3.766010
   H ( 10)  3.936775  2.643215  4.680710  5.154802  1.102251  2.550136
             H (  7)   H (  8)   H (  9)
   H (  8)  1.785210
   H (  9)  4.414503  4.216888
   H ( 10)  2.193535  3.478066  3.430443

 Applying Cartesian multipole field
    Component          Value
    ---------          -----
     (2,0,0)        1.00000E-12
     (0,2,0)        2.00000E-11
     (0,0,2)       -3.00000E-11
 Nucleus-field energy     =    -0.0000000196 hartrees
 ENuRep (before)= 94.5092852681
 ENucField = -0.0000000196
 ENuRep (after) = 94.5092852485
 Job number = 2, Threshold = 1.00E-11
Integral type ranges set in mkLRange.C for JobNum: 2  <1-6|1-6>
Symmetry turned off temporarily
Symmetry turned back on
 Job number = 11, Threshold = 1.00E-11
Integral type ranges set in mkLRange.C for JobNum: 11  <1-6|7-7>
 Smallest overlap matrix eigenvalue = 2.09E-01
 Multipole matrices computed through 2nd order
 Guess from superposition of atomic densities
 Warning:  Energy on first SCF cycle will be non-variational
 SAD guess density has 30.000000 electrons
 SCF convergence criterion is 10**(-8)
 A restricted Hartree-Fock SCF calculation will be
 performed using Pulay DIIS extrapolation
 SCF converges when DIIS error is below 1.0E-08
Finding J and K together
 Job number = 22, Threshold = 1.00E-11
Integral type ranges set in mkLRange.C for JobNum: 22  <1-6|1-6>
 MakeJK  time:  CPU       0.08 s  wall       0.08 s
Fock build time:  0.08 s (CPU) 0.08 s (wall)
DIIS Errors:  Max 1.11E+00 RMS 1.49E-01

Current DIIS subspace size = 1
REM_GRID_RESTART_DIIS = 0

 ---------------------------------------
  Cycle       Energy         DIIS Error
 ---------------------------------------
    1    -151.1460190417      1.49E-01  00000
Finding J and K together
 Job number = 22, Threshold = 1.00E-11
Integral type ranges set in mkLRange.C for JobNum: 22  <1-6|1-6>
 MakeJK  time:  CPU       0.14 s  wall       0.14 s
Fock build time:  0.14 s (CPU) 0.14 s (wall)
DIIS Errors:  Max 1.03E-01 RMS 1.86E-02

Current DIIS subspace size = 2
REM_GRID_RESTART_DIIS = 0

    2    -152.2503016474      1.86E-02  00000
Finding J and K together
 Job number = 22, Threshold = 1.00E-11
Integral type ranges set in mkLRange.C for JobNum: 22  <1-6|1-6>
 MakeJK  time:  CPU       0.13 s  wall       0.13 s
Fock build time:  0.13 s (CPU) 0.13 s (wall)
DIIS Errors:  Max 8.12E-02 RMS 1.32E-02

Current DIIS subspace size = 3
REM_GRID_RESTART_DIIS = 0

    3    -152.3061307515      1.32E-02  00000
Finding J and K together
 Job number = 22, Threshold = 1.00E-11
Integral type ranges set in mkLRange.C for JobNum: 22  <1-6|1-6>
 MakeJK  time:  CPU       0.14 s  wall       0.14 s
Fock build time:  0.14 s (CPU) 0.14 s (wall)
DIIS Errors:  Max 3.51E-02 RMS 4.79E-03

Current DIIS subspace size = 4
REM_GRID_RESTART_DIIS = 0

    4    -152.3236569207      4.79E-03  00000
Finding J and K together
 Job number = 22, Threshold = 1.00E-11
Integral type ranges set in mkLRange.C for JobNum: 22  <1-6|1-6>
 MakeJK  time:  CPU       0.16 s  wall       0.16 s
Fock build time:  0.16 s (CPU) 0.16 s (wall)
DIIS Errors:  Max 5.74E-03 RMS 1.10E-03

Current DIIS subspace size = 5
REM_GRID_RESTART_DIIS = 0

    5    -152.3273041483      1.10E-03  00000
Finding J and K together
 Job number = 22, Threshold = 1.00E-11
Integral type ranges set in mkLRange.C for JobNum: 22  <1-6|1-6>
 MakeJK  time:  CPU       0.16 s  wall       0.16 s
Fock build time:  0.16 s (CPU) 0.16 s (wall)
DIIS Errors:  Max 2.61E-03 RMS 3.60E-04

Current DIIS subspace size = 6
REM_GRID_RESTART_DIIS = 0

    6    -152.3275370758      3.60E-04  00000
Finding J and K together
 Job number = 22, Threshold = 1.00E-11
Integral type ranges set in mkLRange.C for JobNum: 22  <1-6|1-6>
 MakeJK  time:  CPU       0.16 s  wall       0.16 s
Fock build time:  0.16 s (CPU) 0.16 s (wall)
DIIS Errors:  Max 1.76E-03 RMS 2.27E-04

Current DIIS subspace size = 7
REM_GRID_RESTART_DIIS = 0

    7    -152.3275801262      2.27E-04  00000
Finding J and K together
 Job number = 22, Threshold = 1.00E-11
Integral type ranges set in mkLRange.C for JobNum: 22  <1-6|1-6>
 MakeJK  time:  CPU       0.16 s  wall       0.16 s
Fock build time:  0.16 s (CPU) 0.16 s (wall)
DIIS Errors:  Max 1.04E-03 RMS 1.31E-04

Current DIIS subspace size = 8
REM_GRID_RESTART_DIIS = 0

    8    -152.3276012450      1.31E-04  00000
Finding J and K together
 Job number = 22, Threshold = 1.00E-11
Integral type ranges set in mkLRange.C for JobNum: 22  <1-6|1-6>
 MakeJK  time:  CPU       0.16 s  wall       0.16 s
Fock build time:  0.16 s (CPU) 0.16 s (wall)
DIIS Errors:  Max 5.91E-04 RMS 7.79E-05

Current DIIS subspace size = 9
REM_GRID_RESTART_DIIS = 0

    9    -152.3276089836      7.79E-05  00000
Finding J and K together
 Job number = 22, Threshold = 1.00E-11
Integral type ranges set in mkLRange.C for JobNum: 22  <1-6|1-6>
 MakeJK  time:  CPU       0.14 s  wall       0.14 s
Fock build time:  0.14 s (CPU) 0.14 s (wall)
DIIS Errors:  Max 9.26E-05 RMS 1.82E-05

Current DIIS subspace size = 10
REM_GRID_RESTART_DIIS = 0

   10    -152.3276124550      1.82E-05  00000
Finding J and K together
 Job number = 22, Threshold = 1.00E-11
Integral type ranges set in mkLRange.C for JobNum: 22  <1-6|1-6>
 MakeJK  time:  CPU       0.16 s  wall       0.16 s
Fock build time:  0.16 s (CPU) 0.16 s (wall)
DIIS Errors:  Max 4.31E-05 RMS 5.96E-06

Current DIIS subspace size = 11
REM_GRID_RESTART_DIIS = 0

   11    -152.3276126596      5.96E-06  00000
Finding J and K together
 Job number = 22, Threshold = 1.00E-11
Integral type ranges set in mkLRange.C for JobNum: 22  <1-6|1-6>
 MakeJK  time:  CPU       0.16 s  wall       0.16 s
Fock build time:  0.16 s (CPU) 0.16 s (wall)
DIIS Errors:  Max 2.11E-05 RMS 2.54E-06

Current DIIS subspace size = 12
REM_GRID_RESTART_DIIS = 0

   12    -152.3276126818      2.54E-06  00000
Finding J and K together
 Job number = 22, Threshold = 1.00E-11
Integral type ranges set in mkLRange.C for JobNum: 22  <1-6|1-6>
 MakeJK  time:  CPU       0.16 s  wall       0.16 s
Fock build time:  0.16 s (CPU) 0.16 s (wall)
DIIS Errors:  Max 1.10E-05 RMS 1.30E-06

Current DIIS subspace size = 13
REM_GRID_RESTART_DIIS = 0

   13    -152.3276126876      1.30E-06  00000
Finding J and K together
 Job number = 22, Threshold = 1.00E-11
Integral type ranges set in mkLRange.C for JobNum: 22  <1-6|1-6>
 MakeJK  time:  CPU       0.16 s  wall       0.16 s
Fock build time:  0.16 s (CPU) 0.16 s (wall)
DIIS Errors:  Max 3.36E-06 RMS 5.11E-07

Current DIIS subspace size = 14
REM_GRID_RESTART_DIIS = 0

   14    -152.3276126895      5.11E-07  00000
Finding J and K together
 Job number = 22, Threshold = 1.00E-11
Integral type ranges set in mkLRange.C for JobNum: 22  <1-6|1-6>
 MakeJK  time:  CPU       0.12 s  wall       0.12 s
Fock build time:  0.12 s (CPU) 0.12 s (wall)
DIIS Errors:  Max 5.86E-07 RMS 1.12E-07

Current DIIS subspace size = 15
REM_GRID_RESTART_DIIS = 0

   15    -152.3276126897      1.12E-07  00000
Finding J and K together
 Job number = 22, Threshold = 1.00E-11
Integral type ranges set in mkLRange.C for JobNum: 22  <1-6|1-6>
 MakeJK  time:  CPU       0.13 s  wall       0.13 s
Fock build time:  0.13 s (CPU) 0.13 s (wall)
DIIS Errors:  Max 9.27E-08 RMS 2.03E-08

Current DIIS subspace size = 15
REM_GRID_RESTART_DIIS = 0

   16    -152.3276126897      2.03E-08  00000
Finding J and K together
 Job number = 22, Threshold = 1.00E-11
Integral type ranges set in mkLRange.C for JobNum: 22  <1-6|1-6>
 MakeJK  time:  CPU       0.16 s  wall       0.16 s
Fock build time:  0.16 s (CPU) 0.16 s (wall)
DIIS Errors:  Max 1.66E-08 RMS 3.45E-09

Current DIIS subspace size = 15
REM_GRID_RESTART_DIIS = 0

   17    -152.3276126897      3.45E-09  00000 Convergence criterion met
 ---------------------------------------
 SCF time:  CPU 2.50 s  wall 2.52 s
 SCF   energy in the final basis set = -152.32761269
 Total energy in the final basis set = -152.32761269
drvman_main.C: 73: calling DrvMan  Calculating analytic gradient of the SCF energy
drvman.C : 218: Calculating analytic gradient of the SCF energy
drvman.C: 244: calling SCF_Grad for normal SCF gradient
 Job number = 111, Threshold = 1.00E-11
Integral type ranges set in mkLRange.C for JobNum: 11  <1-6|7-7>
Finding J and K together
 ML is being used
 Job number = 122, Threshold = 1.00E-11
Integral type ranges set in mkLRange.C for JobNum: 22  <1-6|1-6>
 MakeJK  time:  CPU       0.34 s  wall       0.34 s
 Gradient of SCF Energy
            1           2           3           4           5           6
    1  -0.0093956  -0.1513111  -0.0607399   0.0392891   0.2938591  -0.4530247
    2   0.0361903  -0.0288225  -0.1307381   0.0045481   0.1294601  -0.1734613
    3  -0.0040149  -0.1732028  -0.0275567   0.1542439  -0.1749352   0.1508878
            7           8           9          10
    1   0.0775187   0.1792083   0.0694916   0.0151046
    2   0.0341643   0.0589750   0.0602170   0.0094671
    3   0.0518767  -0.0730041   0.1070064  -0.0113012
 Max gradient component =       4.530E-01
 RMS gradient           =       1.372E-01
drvman.C: 248: out of SCF_Grad for normal SCF gradient
 Gradient time:  CPU 0.36 s  wall 0.36 s
 ------------------------------------------------------------------------------
                     drvman        : Timing summary (seconds)
 ------------------------------------------------------------------------------
     job step          cpu (% of tot)      sys (% of tot)     wall (% of tot)
 ------------------------------------------------------------------------------
 ------------------------------------------------------------------------------
   Grand Totals     0.3640E+00          0.1000E-05          0.3620E+00
 ------------------------------------------------------------------------------
drvman_main.C: 77: out of DrvMan  Time for this dynamics step: 2.9 s (CPU) 2.9 s (wall)

TIME STEP #2 (t = 20.000 a.u. = 0.48378 fs)
--------------------------------------
 Instantaneous Temperature = 963.8 K
 ----------------------------------------------------------------
             Standard Nuclear Orientation (Angstroms)
    I     Atom           X                Y                Z
 ----------------------------------------------------------------
    1      C       3.8840179807    -0.7807033045    -0.7450762436
    2      C       4.3298783974     0.2494380669    -1.6552209910
    3      H       3.2640271284    -2.0489067239    -1.0760082966
    4      H       4.2018915200    -0.7079665437     0.7945562557
    5      C       4.7168725510     0.5822011074    -3.2619231551
    6      C       3.2251556354    -0.0600737198    -3.5391335095
    7      H       3.6174775781    -0.0029345308    -4.5378808423
    8      H       2.3153096800    -0.3920622291    -3.3248841670
    9      H       5.1319171955     1.0924813969    -0.5403651515
   10      H       5.5741428974     0.8211953625    -3.9202765515
 ----------------------------------------------------------------
 Nuclear Repulsion Energy =    94.5948518311 hartrees
 There are       15 alpha and       15 beta electrons

                       Distance Matrix (Angstroms)
             C (  1)   C (  2)   H (  3)   H (  4)   C (  5)   C (  6)
   C (  2)  1.445111
   H (  3)  1.449912  2.598830
   H (  4)  1.573786  2.633327  2.485301
   C (  5)  2.980885  1.685820  3.716411  4.287746
   C (  6)  2.959757  2.205751  3.166063  4.489393  1.647599
   H (  7)  3.880894  2.980090  4.036767  5.410499  1.783009  1.074559
   H (  8)  3.044223  2.694028  2.950024  4.541891  2.592423  0.991937
   H (  9)  2.260084  1.611487  3.693812  2.426639  2.799915  3.735871
   H ( 10)  3.937575  2.646805  4.654458  5.143059  1.107005  2.537646
             H (  7)   H (  8)   H (  9)
   H (  8)  1.821654
   H (  9)  4.412890  4.229739
   H ( 10)  2.211145  3.527957  3.419497

 Applying Cartesian multipole field
    Component          Value
    ---------          -----
     (2,0,0)        1.00000E-12
     (0,2,0)        2.00000E-11
     (0,0,2)       -3.00000E-11
 Nucleus-field energy     =    -0.0000000196 hartrees
 ENuRep (before)= 94.5948518311
 ENucField = -0.0000000196
 ENuRep (after) = 94.5948518115
 Job number = 2, Threshold = 1.00E-11
Integral type ranges set in mkLRange.C for JobNum: 2  <1-6|1-6>
Symmetry turned off temporarily
Symmetry turned back on
 Job number = 11, Threshold = 1.00E-11
Integral type ranges set in mkLRange.C for JobNum: 11  <1-6|7-7>
 Smallest overlap matrix eigenvalue = 2.40E-01
 Multipole matrices computed through 2nd order
 Guess from superposition of atomic densities
 Warning:  Energy on first SCF cycle will be non-variational
 SAD guess density has 30.000000 electrons
 SCF convergence criterion is 10**(-8)
 A restricted Hartree-Fock SCF calculation will be
 performed using Pulay DIIS extrapolation
 SCF converges when DIIS error is below 1.0E-08
Finding J and K together
 Job number = 22, Threshold = 1.00E-11
Integral type ranges set in mkLRange.C for JobNum: 22  <1-6|1-6>
 MakeJK  time:  CPU       0.13 s  wall       0.13 s
Fock build time:  0.13 s (CPU) 0.13 s (wall)
DIIS Errors:  Max 9.98E-01 RMS 1.47E-01

Current DIIS subspace size = 1
REM_GRID_RESTART_DIIS = 0

 ---------------------------------------
  Cycle       Energy         DIIS Error
 ---------------------------------------
    1    -151.1274737439      1.47E-01  00000
Finding J and K together
 Job number = 22, Threshold = 1.00E-11
Integral type ranges set in mkLRange.C for JobNum: 22  <1-6|1-6>
 MakeJK  time:  CPU       0.16 s  wall       0.16 s
Fock build time:  0.16 s (CPU) 0.16 s (wall)
DIIS Errors:  Max 9.87E-02 RMS 1.76E-02

Current DIIS subspace size = 2
REM_GRID_RESTART_DIIS = 0

    2    -152.3108792323      1.76E-02  00000
Finding J and K together
 Job number = 22, Threshold = 1.00E-11
Integral type ranges set in mkLRange.C for JobNum: 22  <1-6|1-6>
 MakeJK  time:  CPU       0.16 s  wall       0.16 s
Fock build time:  0.16 s (CPU) 0.16 s (wall)
DIIS Errors:  Max 6.73E-02 RMS 1.14E-02

Current DIIS subspace size = 3
REM_GRID_RESTART_DIIS = 0

    3    -152.3647765395      1.14E-02  00000
Finding J and K together
 Job number = 22, Threshold = 1.00E-11
Integral type ranges set in mkLRange.C for JobNum: 22  <1-6|1-6>
 MakeJK  time:  CPU       0.16 s  wall       0.17 s
Fock build time:  0.16 s (CPU) 0.17 s (wall)
DIIS Errors:  Max 3.56E-02 RMS 4.80E-03

Current DIIS subspace size = 4
REM_GRID_RESTART_DIIS = 0

    4    -152.3776209623      4.80E-03  00000
Finding J and K together
 Job number = 22, Threshold = 1.00E-11
Integral type ranges set in mkLRange.C for JobNum: 22  <1-6|1-6>
 MakeJK  time:  CPU       0.16 s  wall       0.17 s
Fock build time:  0.16 s (CPU) 0.17 s (wall)
DIIS Errors:  Max 5.17E-03 RMS 9.69E-04

Current DIIS subspace size = 5
REM_GRID_RESTART_DIIS = 0

    5    -152.3810827692      9.69E-04  00000
Finding J and K together
 Job number = 22, Threshold = 1.00E-11
Integral type ranges set in mkLRange.C for JobNum: 22  <1-6|1-6>
 MakeJK  time:  CPU       0.17 s  wall       0.18 s
Fock build time:  0.17 s (CPU) 0.18 s (wall)
DIIS Errors:  Max 2.23E-03 RMS 3.13E-04

Current DIIS subspace size = 6
REM_GRID_RESTART_DIIS = 0

    6    -152.3812562703      3.13E-04  00000
Finding J and K together
 Job number = 22, Threshold = 1.00E-11
Integral type ranges set in mkLRange.C for JobNum: 22  <1-6|1-6>
 MakeJK  time:  CPU       0.17 s  wall       0.17 s
Fock build time:  0.17 s (CPU) 0.17 s (wall)
DIIS Errors:  Max 1.49E-03 RMS 2.02E-04

Current DIIS subspace size = 7
REM_GRID_RESTART_DIIS = 0

    7    -152.3812876969      2.02E-04  00000
Finding J and K together
 Job number = 22, Threshold = 1.00E-11
Integral type ranges set in mkLRange.C for JobNum: 22  <1-6|1-6>
 MakeJK  time:  CPU       0.15 s  wall       0.15 s
Fock build time:  0.15 s (CPU) 0.15 s (wall)
DIIS Errors:  Max 8.97E-04 RMS 1.14E-04

Current DIIS subspace size = 8
REM_GRID_RESTART_DIIS = 0

    8    -152.3813016458      1.14E-04  00000
Finding J and K together
 Job number = 22, Threshold = 1.00E-11
Integral type ranges set in mkLRange.C for JobNum: 22  <1-6|1-6>
 MakeJK  time:  CPU       0.16 s  wall       0.17 s
Fock build time:  0.16 s (CPU) 0.17 s (wall)
DIIS Errors:  Max 4.88E-04 RMS 6.27E-05

Current DIIS subspace size = 9
REM_GRID_RESTART_DIIS = 0

    9    -152.3813073366      6.27E-05  00000
Finding J and K together
 Job number = 22, Threshold = 1.00E-11
Integral type ranges set in mkLRange.C for JobNum: 22  <1-6|1-6>
 MakeJK  time:  CPU       0.16 s  wall       0.16 s
Fock build time:  0.16 s (CPU) 0.16 s (wall)
DIIS Errors:  Max 7.94E-05 RMS 1.43E-05

Current DIIS subspace size = 10
REM_GRID_RESTART_DIIS = 0

   10    -152.3813094613      1.43E-05  00000
Finding J and K together
 Job number = 22, Threshold = 1.00E-11
Integral type ranges set in mkLRange.C for JobNum: 22  <1-6|1-6>
 MakeJK  time:  CPU       0.14 s  wall       0.15 s
Fock build time:  0.14 s (CPU) 0.15 s (wall)
DIIS Errors:  Max 2.37E-05 RMS 4.11E-06

Current DIIS subspace size = 11
REM_GRID_RESTART_DIIS = 0

   11    -152.3813095772      4.11E-06  00000
Finding J and K together
 Job number = 22, Threshold = 1.00E-11
Integral type ranges set in mkLRange.C for JobNum: 22  <1-6|1-6>
 MakeJK  time:  CPU       0.16 s  wall       0.16 s
Fock build time:  0.16 s (CPU) 0.16 s (wall)
DIIS Errors:  Max 1.05E-05 RMS 1.43E-06

Current DIIS subspace size = 12
REM_GRID_RESTART_DIIS = 0

   12    -152.3813095861      1.43E-06  00000
Finding J and K together
 Job number = 22, Threshold = 1.00E-11
Integral type ranges set in mkLRange.C for JobNum: 22  <1-6|1-6>
 MakeJK  time:  CPU       0.16 s  wall       0.16 s
Fock build time:  0.16 s (CPU) 0.16 s (wall)
DIIS Errors:  Max 5.77E-06 RMS 6.64E-07

Current DIIS subspace size = 13
REM_GRID_RESTART_DIIS = 0

   13    -152.3813095875      6.64E-07  00000
Finding J and K together
 Job number = 22, Threshold = 1.00E-11
Integral type ranges set in mkLRange.C for JobNum: 22  <1-6|1-6>
 MakeJK  time:  CPU       0.10 s  wall       0.11 s
Fock build time:  0.10 s (CPU) 0.11 s (wall)
DIIS Errors:  Max 2.40E-06 RMS 3.12E-07

Current DIIS subspace size = 14
REM_GRID_RESTART_DIIS = 0

   14    -152.3813095879      3.12E-07  00000
Finding J and K together
 Job number = 22, Threshold = 1.00E-11
Integral type ranges set in mkLRange.C for JobNum: 22  <1-6|1-6>
 MakeJK  time:  CPU       0.11 s  wall       0.11 s
Fock build time:  0.11 s (CPU) 0.11 s (wall)
DIIS Errors:  Max 4.31E-07 RMS 7.76E-08

Current DIIS subspace size = 15
REM_GRID_RESTART_DIIS = 0

   15    -152.3813095880      7.76E-08  00000
Finding J and K together
 Job number = 22, Threshold = 1.00E-11
Integral type ranges set in mkLRange.C for JobNum: 22  <1-6|1-6>
 MakeJK  time:  CPU       0.12 s  wall       0.12 s
Fock build time:  0.12 s (CPU) 0.12 s (wall)
DIIS Errors:  Max 5.57E-08 RMS 1.37E-08

Current DIIS subspace size = 15
REM_GRID_RESTART_DIIS = 0

   16    -152.3813095880      1.37E-08  00000
Finding J and K together
 Job number = 22, Threshold = 1.00E-11
Integral type ranges set in mkLRange.C for JobNum: 22  <1-6|1-6>
 MakeJK  time:  CPU       0.14 s  wall       0.14 s
Fock build time:  0.14 s (CPU) 0.14 s (wall)
DIIS Errors:  Max 1.06E-08 RMS 2.33E-09

Current DIIS subspace size = 15
REM_GRID_RESTART_DIIS = 0

   17    -152.3813095880      2.33E-09  00000 Convergence criterion met
 ---------------------------------------
 SCF time:  CPU 2.54 s  wall 2.58 s
 SCF   energy in the final basis set = -152.38130959
 Total energy in the final basis set = -152.38130959
drvman_main.C: 73: calling DrvMan  Calculating analytic gradient of the SCF energy
drvman.C : 218: Calculating analytic gradient of the SCF energy
drvman.C: 244: calling SCF_Grad for normal SCF gradient
 Job number = 111, Threshold = 1.00E-11
Integral type ranges set in mkLRange.C for JobNum: 11  <1-6|7-7>
Finding J and K together
 ML is being used
 Job number = 122, Threshold = 1.00E-11
Integral type ranges set in mkLRange.C for JobNum: 22  <1-6|1-6>
 MakeJK  time:  CPU       0.42 s  wall       0.43 s
 Gradient of SCF Energy
            1           2           3           4           5           6
    1  -0.0097535  -0.1521632  -0.0588709   0.0385476   0.2898404  -0.3559326
    2   0.0384729  -0.0309739  -0.1286370   0.0022818   0.1296430  -0.1387421
    3  -0.0044657  -0.1748671  -0.0280566   0.1544104  -0.1709269   0.1309600
            7           8           9          10
    1   0.0752166   0.0854246   0.0696453   0.0180457
    2   0.0327714   0.0250135   0.0596253   0.0105452
    3   0.0482966  -0.0487340   0.1077369  -0.0143536
 Max gradient component =       3.559E-01
 RMS gradient           =       1.205E-01
drvman.C: 248: out of SCF_Grad for normal SCF gradient
 Gradient time:  CPU 0.44 s  wall 0.45 s
 ------------------------------------------------------------------------------
                     drvman        : Timing summary (seconds)
 ------------------------------------------------------------------------------
     job step          cpu (% of tot)      sys (% of tot)     wall (% of tot)
 ------------------------------------------------------------------------------
 ------------------------------------------------------------------------------
   Grand Totals     0.4360E+00          0.2000E-05          0.4480E+00
 ------------------------------------------------------------------------------
drvman_main.C: 77: out of DrvMan  Time for this dynamics step: 3.0 s (CPU) 3.1 s (wall)

TIME STEP #3 (t = 40.000 a.u. = 0.96755 fs)
--------------------------------------
 Instantaneous Temperature = 2077.4 K
 ----------------------------------------------------------------
             Standard Nuclear Orientation (Angstroms)
    I     Atom           X                Y                Z
 ----------------------------------------------------------------
    1      C       3.8821868095    -0.7782273392    -0.7481267281
    2      C       4.3331370914     0.2513662716    -1.6504963783
    3      H       3.2867876916    -2.0055124344    -1.0803923765
    4      H       4.1856325955    -0.7221597243     0.7514730982
    5      C       4.7085574076     0.5802808036    -3.2586243704
    6      C       3.2405745004    -0.0600987850    -3.5372325385
    7      H       3.5951044838    -0.0228557311    -4.5546343359
    8      H       2.2580433678    -0.4164277384    -3.3135856706
    9      H       5.1113932480     1.0722833015    -0.5669752101
   10      H       5.5662250463     0.8272026797    -3.9225900142
 ----------------------------------------------------------------
 Nuclear Repulsion Energy =    94.8258249165 hartrees
 There are       15 alpha and       15 beta electrons

                       Distance Matrix (Angstroms)
             C (  1)   C (  2)   H (  3)   H (  4)   C (  5)   C (  6)
   C (  2)  1.441419
   H (  3)  1.403969  2.552130
   H (  4)  1.531020  2.595952  2.410528
   C (  5)  2.971705  1.683805  3.667758  4.248610
   C (  6)  2.950676  2.202380  3.134140  4.441222  1.625633
   H (  7)  3.891337  3.008971  4.012025  5.384471  1.811958  1.078047
   H (  8)  3.057829  2.741866  2.927569  4.509299  2.646029  1.068810
   H (  9)  2.228936  1.566399  3.614638  2.411507  2.765740  3.688452
   H ( 10)  3.935811  2.648491  4.614997  5.114042  1.112391  2.518820
             H (  7)   H (  8)   H (  9)
   H (  8)  1.866235
   H (  9)  4.404530  4.231044
   H ( 10)  2.237721  3.586303  3.395156

 Applying Cartesian multipole field
    Component          Value
    ---------          -----
     (2,0,0)        1.00000E-12
     (0,2,0)        2.00000E-11
     (0,0,2)       -3.00000E-11
 Nucleus-field energy     =    -0.0000000196 hartrees
 ENuRep (before)= 94.8258249165
 ENucField = -0.0000000196
 ENuRep (after) = 94.8258248970
 Job number = 2, Threshold = 1.00E-11
Integral type ranges set in mkLRange.C for JobNum: 2  <1-6|1-6>
Symmetry turned off temporarily
Symmetry turned back on
 Job number = 11, Threshold = 1.00E-11
Integral type ranges set in mkLRange.C for JobNum: 11  <1-6|7-7>
 Smallest overlap matrix eigenvalue = 2.66E-01
 Multipole matrices computed through 2nd order
 Guess from superposition of atomic densities
 Warning:  Energy on first SCF cycle will be non-variational
 SAD guess density has 30.000000 electrons
 SCF convergence criterion is 10**(-8)
 A restricted Hartree-Fock SCF calculation will be
 performed using Pulay DIIS extrapolation
 SCF converges when DIIS error is below 1.0E-08
Finding J and K together
 Job number = 22, Threshold = 1.00E-11
Integral type ranges set in mkLRange.C for JobNum: 22  <1-6|1-6>
 MakeJK  time:  CPU       0.12 s  wall       0.13 s
Fock build time:  0.12 s (CPU) 0.13 s (wall)
DIIS Errors:  Max 8.86E-01 RMS 1.46E-01

Current DIIS subspace size = 1
REM_GRID_RESTART_DIIS = 0

 ---------------------------------------
  Cycle       Energy         DIIS Error
 ---------------------------------------
    1    -151.1225619326      1.46E-01  00000
Finding J and K together
 Job number = 22, Threshold = 1.00E-11
Integral type ranges set in mkLRange.C for JobNum: 22  <1-6|1-6>
 MakeJK  time:  CPU       0.16 s  wall       0.16 s
Fock build time:  0.16 s (CPU) 0.16 s (wall)
DIIS Errors:  Max 9.35E-02 RMS 1.65E-02

Current DIIS subspace size = 2
REM_GRID_RESTART_DIIS = 0

    2    -152.3845926546      1.65E-02  00000
Finding J and K together
 Job number = 22, Threshold = 1.00E-11
Integral type ranges set in mkLRange.C for JobNum: 22  <1-6|1-6>
 MakeJK  time:  CPU       0.12 s  wall       0.12 s
Fock build time:  0.12 s (CPU) 0.12 s (wall)
DIIS Errors:  Max 5.35E-02 RMS 9.55E-03

Current DIIS subspace size = 3
REM_GRID_RESTART_DIIS = 0

    3    -152.4344283235      9.55E-03  00000
Finding J and K together
 Job number = 22, Threshold = 1.00E-11
Integral type ranges set in mkLRange.C for JobNum: 22  <1-6|1-6>
 MakeJK  time:  CPU       0.16 s  wall       0.17 s
Fock build time:  0.16 s (CPU) 0.17 s (wall)
DIIS Errors:  Max 3.52E-02 RMS 4.71E-03

Current DIIS subspace size = 4
REM_GRID_RESTART_DIIS = 0

    4    -152.4432731223      4.71E-03  00000
Finding J and K together
 Job number = 22, Threshold = 1.00E-11
Integral type ranges set in mkLRange.C for JobNum: 22  <1-6|1-6>
 MakeJK  time:  CPU       0.16 s  wall       0.21 s
Fock build time:  0.16 s (CPU) 0.21 s (wall)
DIIS Errors:  Max 4.22E-03 RMS 7.73E-04

Current DIIS subspace size = 5
REM_GRID_RESTART_DIIS = 0

    5    -152.4464029884      7.73E-04  00000
Finding J and K together
 Job number = 22, Threshold = 1.00E-11
Integral type ranges set in mkLRange.C for JobNum: 22  <1-6|1-6>
 MakeJK  time:  CPU       0.17 s  wall       0.17 s
Fock build time:  0.17 s (CPU) 0.17 s (wall)
DIIS Errors:  Max 1.76E-03 RMS 2.52E-04

Current DIIS subspace size = 6
REM_GRID_RESTART_DIIS = 0

    6    -152.4465093997      2.52E-04  00000
Finding J and K together
 Job number = 22, Threshold = 1.00E-11
Integral type ranges set in mkLRange.C for JobNum: 22  <1-6|1-6>
 MakeJK  time:  CPU       0.17 s  wall       0.18 s
Fock build time:  0.17 s (CPU) 0.18 s (wall)
DIIS Errors:  Max 1.16E-03 RMS 1.67E-04

Current DIIS subspace size = 7
REM_GRID_RESTART_DIIS = 0

    7    -152.4465289012      1.67E-04  00000
Finding J and K together
 Job number = 22, Threshold = 1.00E-11
Integral type ranges set in mkLRange.C for JobNum: 22  <1-6|1-6>
 MakeJK  time:  CPU       0.16 s  wall       0.17 s
Fock build time:  0.16 s (CPU) 0.17 s (wall)
DIIS Errors:  Max 6.98E-04 RMS 8.78E-05

Current DIIS subspace size = 8
REM_GRID_RESTART_DIIS = 0

    8    -152.4465367154      8.78E-05  00000
Finding J and K together
 Job number = 22, Threshold = 1.00E-11
Integral type ranges set in mkLRange.C for JobNum: 22  <1-6|1-6>
 MakeJK  time:  CPU       0.16 s  wall       0.16 s
Fock build time:  0.16 s (CPU) 0.16 s (wall)
DIIS Errors:  Max 3.44E-04 RMS 4.41E-05

Current DIIS subspace size = 9
REM_GRID_RESTART_DIIS = 0

    9    -152.4465401070      4.41E-05  00000
Finding J and K together
 Job number = 22, Threshold = 1.00E-11
Integral type ranges set in mkLRange.C for JobNum: 22  <1-6|1-6>
 MakeJK  time:  CPU       0.14 s  wall       0.15 s
Fock build time:  0.14 s (CPU) 0.15 s (wall)
DIIS Errors:  Max 6.02E-05 RMS 1.02E-05

Current DIIS subspace size = 10
REM_GRID_RESTART_DIIS = 0

   10    -152.4465410593      1.02E-05  00000
Finding J and K together
 Job number = 22, Threshold = 1.00E-11
Integral type ranges set in mkLRange.C for JobNum: 22  <1-6|1-6>
 MakeJK  time:  CPU       0.15 s  wall       0.15 s
Fock build time:  0.15 s (CPU) 0.15 s (wall)
DIIS Errors:  Max 1.28E-05 RMS 2.60E-06

Current DIIS subspace size = 11
REM_GRID_RESTART_DIIS = 0

   11    -152.4465411128      2.60E-06  00000
Finding J and K together
 Job number = 22, Threshold = 1.00E-11
Integral type ranges set in mkLRange.C for JobNum: 22  <1-6|1-6>
 MakeJK  time:  CPU       0.12 s  wall       0.13 s
Fock build time:  0.12 s (CPU) 0.13 s (wall)
DIIS Errors:  Max 3.85E-06 RMS 7.12E-07

Current DIIS subspace size = 12
REM_GRID_RESTART_DIIS = 0

   12    -152.4465411157      7.12E-07  00000
Finding J and K together
 Job number = 22, Threshold = 1.00E-11
Integral type ranges set in mkLRange.C for JobNum: 22  <1-6|1-6>
 MakeJK  time:  CPU       0.12 s  wall       0.13 s
Fock build time:  0.12 s (CPU) 0.13 s (wall)
DIIS Errors:  Max 1.37E-06 RMS 2.00E-07

Current DIIS subspace size = 13
REM_GRID_RESTART_DIIS = 0

   13    -152.4465411159      2.00E-07  00000
Finding J and K together
 Job number = 22, Threshold = 1.00E-11
Integral type ranges set in mkLRange.C for JobNum: 22  <1-6|1-6>
 MakeJK  time:  CPU       0.10 s  wall       0.10 s
Fock build time:  0.10 s (CPU) 0.10 s (wall)
DIIS Errors:  Max 7.93E-07 RMS 9.24E-08

Current DIIS subspace size = 14
REM_GRID_RESTART_DIIS = 0

   14    -152.4465411159      9.24E-08  00000
Finding J and K together
 Job number = 22, Threshold = 1.00E-11
Integral type ranges set in mkLRange.C for JobNum: 22  <1-6|1-6>
 MakeJK  time:  CPU       0.12 s  wall       0.12 s
Fock build time:  0.12 s (CPU) 0.12 s (wall)
DIIS Errors:  Max 3.28E-07 RMS 3.93E-08

Current DIIS subspace size = 15
REM_GRID_RESTART_DIIS = 0

   15    -152.4465411159      3.93E-08  00000
Finding J and K together
 Job number = 22, Threshold = 1.00E-11
Integral type ranges set in mkLRange.C for JobNum: 22  <1-6|1-6>
 MakeJK  time:  CPU       0.11 s  wall       0.11 s
Fock build time:  0.11 s (CPU) 0.11 s (wall)
DIIS Errors:  Max 4.93E-08 RMS 8.11E-09

Current DIIS subspace size = 15
REM_GRID_RESTART_DIIS = 0

   16    -152.4465411159      8.11E-09  00000 Convergence criterion met
 ---------------------------------------
 SCF time:  CPU 2.29 s  wall 2.40 s
 SCF   energy in the final basis set = -152.44654112
 Total energy in the final basis set = -152.44654112
drvman_main.C: 73: calling DrvMan  Calculating analytic gradient of the SCF energy
drvman.C : 218: Calculating analytic gradient of the SCF energy
drvman.C: 244: calling SCF_Grad for normal SCF gradient
 Job number = 111, Threshold = 1.00E-11
Integral type ranges set in mkLRange.C for JobNum: 11  <1-6|7-7>
Finding J and K together
 ML is being used
 Job number = 122, Threshold = 1.00E-11
Integral type ranges set in mkLRange.C for JobNum: 22  <1-6|1-6>
 MakeJK  time:  CPU       0.43 s  wall       0.51 s
 Gradient of SCF Energy
            1           2           3           4           5           6
    1  -0.0108747  -0.1521760  -0.0556988   0.0374020   0.2845007  -0.2672852
    2   0.0386629  -0.0330197  -0.1239279  -0.0002783   0.1300916  -0.1072814
    3  -0.0046570  -0.1768800  -0.0277951   0.1536504  -0.1644264   0.1164237
            7           8           9          10
    1   0.0715216   0.0019136   0.0695273   0.0211695
    2   0.0302971  -0.0047501   0.0587100   0.0114959
    3   0.0426293  -0.0294004   0.1083435  -0.0178878
 Max gradient component =       2.845E-01
 RMS gradient           =       1.084E-01
drvman.C: 248: out of SCF_Grad for normal SCF gradient
 Gradient time:  CPU 0.45 s  wall 0.53 s
 ------------------------------------------------------------------------------
                     drvman        : Timing summary (seconds)
 ------------------------------------------------------------------------------
     job step          cpu (% of tot)      sys (% of tot)     wall (% of tot)
 ------------------------------------------------------------------------------
 ------------------------------------------------------------------------------
   Grand Totals     0.4480E+00          0.0000E+00          0.5255E+00
 ------------------------------------------------------------------------------
drvman_main.C: 77: out of DrvMan  Time for this dynamics step: 2.8 s (CPU) 3.0 s (wall)

TIME STEP #4 (t = 60.000 a.u. = 1.45133 fs)
--------------------------------------
 Instantaneous Temperature = 3448.0 K
 ----------------------------------------------------------------
             Standard Nuclear Orientation (Angstroms)
    I     Atom           X                Y                Z
 ----------------------------------------------------------------
    1      C       3.8804608675    -0.7761254962    -0.7511321487
    2      C       4.3378683213     0.2536139926    -1.6440601801
    3      H       3.3159656637    -1.9478396320    -1.0815740048
    4      H       4.1650643509    -0.7363208396     0.6906869158
    5      C       4.6974892841     0.5771016643    -3.2537345083
    6      C       3.2585797594    -0.0590857380    -3.5364581448
    7      H       3.5644909423    -0.0462676484    -4.5762994179
    8      H       2.2005565773    -0.4402459607    -3.2988997688
    9      H       5.0828586269     1.0453208579    -0.6060681955
   10      H       5.5558681229     0.8318854814    -3.9228425081
 ----------------------------------------------------------------
 Nuclear Repulsion Energy =    95.2614020344 hartrees
 There are       15 alpha and       15 beta electrons

                       Distance Matrix (Angstroms)
             C (  1)   C (  2)   H (  3)   H (  4)   C (  5)   C (  6)
   C (  2)  1.437674
   H (  3)  1.341924  2.491400
   H (  4)  1.470179  2.541825  2.308605
   C (  5)  2.960030  1.680780  3.605859  4.191302
   C (  6)  2.942605  2.200867  3.097925  4.375970  1.598477
   H (  7)  3.906972  3.047305  3.986332  5.345840  1.849717  1.083981
   H (  8)  3.070181  2.790706  2.904051  4.456877  2.696611  1.149404
   H (  9)  2.187343  1.503076  3.508137  2.387083  2.716225  3.624209
   H ( 10)  3.930959  2.647786  4.562548  5.067372  1.117781  2.494124
             H (  7)   H (  8)   H (  9)
   H (  8)  1.909787
   H (  9)  4.388592  4.214963
   H ( 10)  2.272387  3.642216  3.357124

 Applying Cartesian multipole field
    Component          Value
    ---------          -----
     (2,0,0)        1.00000E-12
     (0,2,0)        2.00000E-11
     (0,0,2)       -3.00000E-11
 Nucleus-field energy     =    -0.0000000195 hartrees
 ENuRep (before)= 95.2614020344
 ENucField = -0.0000000195
 ENuRep (after) = 95.2614020149
 Job number = 2, Threshold = 1.00E-11
Integral type ranges set in mkLRange.C for JobNum: 2  <1-6|1-6>
Symmetry turned off temporarily
Symmetry turned back on
 Job number = 11, Threshold = 1.00E-11
Integral type ranges set in mkLRange.C for JobNum: 11  <1-6|7-7>
 Smallest overlap matrix eigenvalue = 2.63E-01
 Multipole matrices computed through 2nd order
 Guess from superposition of atomic densities
 Warning:  Energy on first SCF cycle will be non-variational
 SAD guess density has 30.000000 electrons
 SCF convergence criterion is 10**(-8)
 A restricted Hartree-Fock SCF calculation will be
 performed using Pulay DIIS extrapolation
 SCF converges when DIIS error is below 1.0E-08
Finding J and K together
 Job number = 22, Threshold = 1.00E-11
Integral type ranges set in mkLRange.C for JobNum: 22  <1-6|1-6>
 MakeJK  time:  CPU       0.12 s  wall       0.13 s
Fock build time:  0.12 s (CPU) 0.13 s (wall)
DIIS Errors:  Max 8.69E-01 RMS 1.47E-01

Current DIIS subspace size = 1
REM_GRID_RESTART_DIIS = 0

 ---------------------------------------
  Cycle       Energy         DIIS Error
 ---------------------------------------
    1    -151.1504709652      1.47E-01  00000
Finding J and K together
 Job number = 22, Threshold = 1.00E-11
Integral type ranges set in mkLRange.C for JobNum: 22  <1-6|1-6>
 MakeJK  time:  CPU       0.14 s  wall       0.14 s
Fock build time:  0.14 s (CPU) 0.14 s (wall)
DIIS Errors:  Max 8.86E-02 RMS 1.55E-02

Current DIIS subspace size = 2
REM_GRID_RESTART_DIIS = 0

    2    -152.4658320690      1.55E-02  00000
Finding J and K together
 Job number = 22, Threshold = 1.00E-11
Integral type ranges set in mkLRange.C for JobNum: 22  <1-6|1-6>
 MakeJK  time:  CPU       0.10 s  wall       0.11 s
Fock build time:  0.10 s (CPU) 0.11 s (wall)
DIIS Errors:  Max 4.21E-02 RMS 8.01E-03

Current DIIS subspace size = 3
REM_GRID_RESTART_DIIS = 0

    3    -152.5103472488      8.01E-03  00000
Finding J and K together
 Job number = 22, Threshold = 1.00E-11
Integral type ranges set in mkLRange.C for JobNum: 22  <1-6|1-6>
 MakeJK  time:  CPU       0.16 s  wall       0.16 s
Fock build time:  0.16 s (CPU) 0.16 s (wall)
DIIS Errors:  Max 3.36E-02 RMS 4.50E-03

Current DIIS subspace size = 4
REM_GRID_RESTART_DIIS = 0

    4    -152.5164815060      4.50E-03  00000
Finding J and K together
 Job number = 22, Threshold = 1.00E-11
Integral type ranges set in mkLRange.C for JobNum: 22  <1-6|1-6>
 MakeJK  time:  CPU       0.15 s  wall       0.16 s
Fock build time:  0.15 s (CPU) 0.16 s (wall)
DIIS Errors:  Max 3.02E-03 RMS 5.52E-04

Current DIIS subspace size = 5
REM_GRID_RESTART_DIIS = 0

    5    -152.5191707460      5.52E-04  00000
Finding J and K together
 Job number = 22, Threshold = 1.00E-11
Integral type ranges set in mkLRange.C for JobNum: 22  <1-6|1-6>
 MakeJK  time:  CPU       0.11 s  wall       0.11 s
Fock build time:  0.11 s (CPU) 0.11 s (wall)
DIIS Errors:  Max 1.29E-03 RMS 1.91E-04

Current DIIS subspace size = 6
REM_GRID_RESTART_DIIS = 0

    6    -152.5192244193      1.91E-04  00000
Finding J and K together
 Job number = 22, Threshold = 1.00E-11
Integral type ranges set in mkLRange.C for JobNum: 22  <1-6|1-6>
 MakeJK  time:  CPU       0.15 s  wall       0.15 s
Fock build time:  0.15 s (CPU) 0.15 s (wall)
DIIS Errors:  Max 8.39E-04 RMS 1.31E-04

Current DIIS subspace size = 7
REM_GRID_RESTART_DIIS = 0

    7    -152.5192348940      1.31E-04  00000
Finding J and K together
 Job number = 22, Threshold = 1.00E-11
Integral type ranges set in mkLRange.C for JobNum: 22  <1-6|1-6>
 MakeJK  time:  CPU       0.12 s  wall       0.12 s
Fock build time:  0.12 s (CPU) 0.12 s (wall)
DIIS Errors:  Max 4.89E-04 RMS 6.11E-05

Current DIIS subspace size = 8
REM_GRID_RESTART_DIIS = 0

    8    -152.5192388541      6.11E-05  00000
Finding J and K together
 Job number = 22, Threshold = 1.00E-11
Integral type ranges set in mkLRange.C for JobNum: 22  <1-6|1-6>
 MakeJK  time:  CPU       0.13 s  wall       0.13 s
Fock build time:  0.13 s (CPU) 0.13 s (wall)
DIIS Errors:  Max 2.05E-04 RMS 2.67E-05

Current DIIS subspace size = 9
REM_GRID_RESTART_DIIS = 0

    9    -152.5192404840      2.67E-05  00000
Finding J and K together
 Job number = 22, Threshold = 1.00E-11
Integral type ranges set in mkLRange.C for JobNum: 22  <1-6|1-6>
 MakeJK  time:  CPU       0.12 s  wall       0.12 s
Fock build time:  0.12 s (CPU) 0.12 s (wall)
DIIS Errors:  Max 3.84E-05 RMS 6.48E-06

Current DIIS subspace size = 10
REM_GRID_RESTART_DIIS = 0

   10    -152.5192407998      6.48E-06  00000
Finding J and K together
 Job number = 22, Threshold = 1.00E-11
Integral type ranges set in mkLRange.C for JobNum: 22  <1-6|1-6>
 MakeJK  time:  CPU       0.12 s  wall       0.11 s
Fock build time:  0.12 s (CPU) 0.11 s (wall)
DIIS Errors:  Max 7.79E-06 RMS 1.60E-06

Current DIIS subspace size = 11
REM_GRID_RESTART_DIIS = 0

   11    -152.5192408204      1.60E-06  00000
Finding J and K together
 Job number = 22, Threshold = 1.00E-11
Integral type ranges set in mkLRange.C for JobNum: 22  <1-6|1-6>
 MakeJK  time:  CPU       0.10 s  wall       0.10 s
Fock build time:  0.10 s (CPU) 0.10 s (wall)
DIIS Errors:  Max 2.45E-06 RMS 4.39E-07

Current DIIS subspace size = 12
REM_GRID_RESTART_DIIS = 0

   12    -152.5192408214      4.39E-07  00000
Finding J and K together
 Job number = 22, Threshold = 1.00E-11
Integral type ranges set in mkLRange.C for JobNum: 22  <1-6|1-6>
 MakeJK  time:  CPU       0.12 s  wall       0.12 s
Fock build time:  0.12 s (CPU) 0.12 s (wall)
DIIS Errors:  Max 7.36E-07 RMS 1.15E-07

Current DIIS subspace size = 13
REM_GRID_RESTART_DIIS = 0

   13    -152.5192408215      1.15E-07  00000
Finding J and K together
 Job number = 22, Threshold = 1.00E-11
Integral type ranges set in mkLRange.C for JobNum: 22  <1-6|1-6>
 MakeJK  time:  CPU       0.12 s  wall       0.12 s
Fock build time:  0.12 s (CPU) 0.12 s (wall)
DIIS Errors:  Max 3.65E-07 RMS 3.90E-08

Current DIIS subspace size = 14
REM_GRID_RESTART_DIIS = 0

   14    -152.5192408215      3.90E-08  00000
Finding J and K together
 Job number = 22, Threshold = 1.00E-11
Integral type ranges set in mkLRange.C for JobNum: 22  <1-6|1-6>
 MakeJK  time:  CPU       0.11 s  wall       0.11 s
Fock build time:  0.11 s (CPU) 0.11 s (wall)
DIIS Errors:  Max 1.46E-07 RMS 1.64E-08

Current DIIS subspace size = 15
REM_GRID_RESTART_DIIS = 0

   15    -152.5192408215      1.64E-08  00000
Finding J and K together
 Job number = 22, Threshold = 1.00E-11
Integral type ranges set in mkLRange.C for JobNum: 22  <1-6|1-6>
 MakeJK  time:  CPU       0.11 s  wall       0.11 s
Fock build time:  0.11 s (CPU) 0.11 s (wall)
DIIS Errors:  Max 2.60E-08 RMS 4.23E-09

Current DIIS subspace size = 15
REM_GRID_RESTART_DIIS = 0

   16    -152.5192408215      4.23E-09  00000 Convergence criterion met
 ---------------------------------------
 SCF time:  CPU 2.01 s  wall 2.04 s
 SCF   energy in the final basis set = -152.51924082
 Total energy in the final basis set = -152.51924082
drvman_main.C: 73: calling DrvMan  Calculating analytic gradient of the SCF energy
drvman.C : 218: Calculating analytic gradient of the SCF energy
drvman.C: 244: calling SCF_Grad for normal SCF gradient
 Job number = 111, Threshold = 1.00E-11
Integral type ranges set in mkLRange.C for JobNum: 11  <1-6|7-7>
Finding J and K together
 ML is being used
 Job number = 122, Threshold = 1.00E-11
Integral type ranges set in mkLRange.C for JobNum: 22  <1-6|1-6>
 MakeJK  time:  CPU       0.42 s  wall       0.45 s
 Gradient of SCF Energy
            1           2           3           4           5           6
    1  -0.0135843  -0.1501776  -0.0500718   0.0354389   0.2772358  -0.1998618
    2   0.0344261  -0.0339787  -0.1142083  -0.0032834   0.1304351  -0.0834150
    3  -0.0036359  -0.1776433  -0.0260048   0.1502506  -0.1558592   0.1099151
            7           8           9          10
    1   0.0662710  -0.0576442   0.0683313   0.0240628
    2   0.0266065  -0.0254810   0.0566927   0.0122060
    3   0.0334734  -0.0167406   0.1077432  -0.0214985
 Max gradient component =       2.772E-01
 RMS gradient           =       1.008E-01
drvman.C: 248: out of SCF_Grad for normal SCF gradient
 Gradient time:  CPU 0.43 s  wall 0.47 s
 ------------------------------------------------------------------------------
                     drvman        : Timing summary (seconds)
 ------------------------------------------------------------------------------
     job step          cpu (% of tot)      sys (% of tot)     wall (% of tot)
 ------------------------------------------------------------------------------
 ------------------------------------------------------------------------------
   Grand Totals     0.4280E+00          0.1000E-05          0.4696E+00
 ------------------------------------------------------------------------------
drvman_main.C: 77: out of DrvMan  Time for this dynamics step: 2.5 s (CPU) 2.5 s (wall)

TIME STEP #5 (t = 80.000 a.u. = 1.93511 fs)
--------------------------------------
 Instantaneous Temperature = 4979.0 K
 ----------------------------------------------------------------
             Standard Nuclear Orientation (Angstroms)
    I     Atom           X                Y                Z
 ----------------------------------------------------------------
    1      C       3.8788663745    -0.7743567788    -0.7541023861
    2      C       4.3440527494     0.2561905093    -1.6359050106
    3      H       3.3509127213    -1.8770081755    -1.0797594567
    4      H       4.1404129741    -0.7501036493     0.6125894190
    5      C       4.6837384795     0.5726603658    -3.2473364695
    6      C       3.2785189881    -0.0572655231    -3.5367473480
    7      H       3.5262419039    -0.0727450703    -4.6018211792
    8      H       2.1497113390    -0.4611283587    -3.2822850818
    9      H       5.0464511307     1.0118264969    -0.6575749462
   10      H       5.5427387707     0.8351619529    -3.9206180286
 ----------------------------------------------------------------
 Nuclear Repulsion Energy =    95.9426693893 hartrees
 There are       15 alpha and       15 beta electrons

                       Distance Matrix (Angstroms)
             C (  1)   C (  2)   H (  3)   H (  4)   C (  5)   C (  6)
   C (  2)  1.433877
   H (  3)  1.265159  2.417884
   H (  4)  1.391704  2.471806  2.181116
   C (  5)  2.945928  1.676977  3.532094  4.116301
   C (  6)  2.935600  2.201549  3.058348  4.294168  1.566910
   H (  7)  3.927027  3.094135  3.961190  5.293968  1.894987  1.093613
   H (  8)  3.078928  2.835533  2.880750  4.383657  2.737012  1.225587
   H (  9)  2.136123  1.421787  3.376160  2.353427  2.651658  3.543752
   H ( 10)  3.922479  2.644233  4.497827  5.002955  1.122540  2.463833
             H (  7)   H (  8)   H (  9)
   H (  8)  1.945984
   H (  9)  4.363990  4.177296
   H ( 10)  2.313999  3.687882  3.305293

 Applying Cartesian multipole field
    Component          Value
    ---------          -----
     (2,0,0)        1.00000E-12
     (0,2,0)        2.00000E-11
     (0,0,2)       -3.00000E-11
 Nucleus-field energy     =    -0.0000000195 hartrees
 ENuRep (before)= 95.9426693893
 ENucField = -0.0000000195
 ENuRep (after) = 95.9426693697
 Job number = 2, Threshold = 1.00E-11
Integral type ranges set in mkLRange.C for JobNum: 2  <1-6|1-6>
Symmetry turned off temporarily
Symmetry turned back on
 Job number = 11, Threshold = 1.00E-11
Integral type ranges set in mkLRange.C for JobNum: 11  <1-6|7-7>
 Smallest overlap matrix eigenvalue = 2.59E-01
 Multipole matrices computed through 2nd order
 Guess from superposition of atomic densities
 Warning:  Energy on first SCF cycle will be non-variational
 SAD guess density has 30.000000 electrons
 SCF convergence criterion is 10**(-8)
 A restricted Hartree-Fock SCF calculation will be
 performed using Pulay DIIS extrapolation
 SCF converges when DIIS error is below 1.0E-08
Finding J and K together
 Job number = 22, Threshold = 1.00E-11
Integral type ranges set in mkLRange.C for JobNum: 22  <1-6|1-6>
 MakeJK  time:  CPU       0.13 s  wall       0.13 s
Fock build time:  0.13 s (CPU) 0.13 s (wall)
DIIS Errors:  Max 8.74E-01 RMS 1.49E-01

Current DIIS subspace size = 1
REM_GRID_RESTART_DIIS = 0

 ---------------------------------------
  Cycle       Energy         DIIS Error
 ---------------------------------------
    1    -151.2280595606      1.49E-01  00000
Finding J and K together
 Job number = 22, Threshold = 1.00E-11
Integral type ranges set in mkLRange.C for JobNum: 22  <1-6|1-6>
 MakeJK  time:  CPU       0.13 s  wall       0.13 s
Fock build time:  0.13 s (CPU) 0.13 s (wall)
DIIS Errors:  Max 8.43E-02 RMS 1.46E-02

Current DIIS subspace size = 2
REM_GRID_RESTART_DIIS = 0

    2    -152.5526700314      1.46E-02  00000
Finding J and K together
 Job number = 22, Threshold = 1.00E-11
Integral type ranges set in mkLRange.C for JobNum: 22  <1-6|1-6>
 MakeJK  time:  CPU       0.16 s  wall       0.16 s
Fock build time:  0.16 s (CPU) 0.16 s (wall)
DIIS Errors:  Max 3.72E-02 RMS 6.83E-03

Current DIIS subspace size = 3
REM_GRID_RESTART_DIIS = 0

    3    -152.5917781876      6.83E-03  00000
Finding J and K together
 Job number = 22, Threshold = 1.00E-11
Integral type ranges set in mkLRange.C for JobNum: 22  <1-6|1-6>
 MakeJK  time:  CPU       0.12 s  wall       0.12 s
Fock build time:  0.12 s (CPU) 0.12 s (wall)
DIIS Errors:  Max 3.10E-02 RMS 4.19E-03

Current DIIS subspace size = 4
REM_GRID_RESTART_DIIS = 0

    4    -152.5962454432      4.19E-03  00000
Finding J and K together
 Job number = 22, Threshold = 1.00E-11
Integral type ranges set in mkLRange.C for JobNum: 22  <1-6|1-6>
 MakeJK  time:  CPU       0.10 s  wall       0.10 s
Fock build time:  0.10 s (CPU) 0.10 s (wall)
DIIS Errors:  Max 1.93E-03 RMS 3.64E-04

Current DIIS subspace size = 5
REM_GRID_RESTART_DIIS = 0

    5    -152.5984429645      3.64E-04  00000
Finding J and K together
 Job number = 22, Threshold = 1.00E-11
Integral type ranges set in mkLRange.C for JobNum: 22  <1-6|1-6>
 MakeJK  time:  CPU       0.13 s  wall       0.13 s
Fock build time:  0.13 s (CPU) 0.13 s (wall)
DIIS Errors:  Max 8.59E-04 RMS 1.42E-04

Current DIIS subspace size = 6
REM_GRID_RESTART_DIIS = 0

    6    -152.5984668653      1.42E-04  00000
Finding J and K together
 Job number = 22, Threshold = 1.00E-11
Integral type ranges set in mkLRange.C for JobNum: 22  <1-6|1-6>
 MakeJK  time:  CPU       0.10 s  wall       0.10 s
Fock build time:  0.10 s (CPU) 0.10 s (wall)
DIIS Errors:  Max 5.77E-04 RMS 9.72E-05

Current DIIS subspace size = 7
REM_GRID_RESTART_DIIS = 0

    7    -152.5984719430      9.72E-05  00000
Finding J and K together
 Job number = 22, Threshold = 1.00E-11
Integral type ranges set in mkLRange.C for JobNum: 22  <1-6|1-6>
 MakeJK  time:  CPU       0.10 s  wall       0.10 s
Fock build time:  0.10 s (CPU) 0.10 s (wall)
DIIS Errors:  Max 3.06E-04 RMS 3.94E-05

Current DIIS subspace size = 8
REM_GRID_RESTART_DIIS = 0

    8    -152.5984738886      3.94E-05  00000
Finding J and K together
 Job number = 22, Threshold = 1.00E-11
Integral type ranges set in mkLRange.C for JobNum: 22  <1-6|1-6>
 MakeJK  time:  CPU       0.12 s  wall       0.13 s
Fock build time:  0.12 s (CPU) 0.13 s (wall)
DIIS Errors:  Max 9.50E-05 RMS 1.31E-05

Current DIIS subspace size = 9
REM_GRID_RESTART_DIIS = 0

    9    -152.5984745340      1.31E-05  00000
Finding J and K together
 Job number = 22, Threshold = 1.00E-11
Integral type ranges set in mkLRange.C for JobNum: 22  <1-6|1-6>
 MakeJK  time:  CPU       0.14 s  wall       0.15 s
Fock build time:  0.14 s (CPU) 0.15 s (wall)
DIIS Errors:  Max 1.93E-05 RMS 3.30E-06

Current DIIS subspace size = 10
REM_GRID_RESTART_DIIS = 0

   10    -152.5984746076      3.30E-06  00000
Finding J and K together
 Job number = 22, Threshold = 1.00E-11
Integral type ranges set in mkLRange.C for JobNum: 22  <1-6|1-6>
 MakeJK  time:  CPU       0.12 s  wall       0.12 s
Fock build time:  0.12 s (CPU) 0.12 s (wall)
DIIS Errors:  Max 4.73E-06 RMS 9.53E-07

Current DIIS subspace size = 11
REM_GRID_RESTART_DIIS = 0

   11    -152.5984746126      9.53E-07  00000
Finding J and K together
 Job number = 22, Threshold = 1.00E-11
Integral type ranges set in mkLRange.C for JobNum: 22  <1-6|1-6>
 MakeJK  time:  CPU       0.10 s  wall       0.10 s
Fock build time:  0.10 s (CPU) 0.10 s (wall)
DIIS Errors:  Max 1.69E-06 RMS 2.99E-07

Current DIIS subspace size = 12
REM_GRID_RESTART_DIIS = 0

   12    -152.5984746130      2.99E-07  00000
Finding J and K together
 Job number = 22, Threshold = 1.00E-11
Integral type ranges set in mkLRange.C for JobNum: 22  <1-6|1-6>
 MakeJK  time:  CPU       0.11 s  wall       0.11 s
Fock build time:  0.11 s (CPU) 0.11 s (wall)
DIIS Errors:  Max 9.37E-07 RMS 1.05E-07

Current DIIS subspace size = 13
REM_GRID_RESTART_DIIS = 0

   13    -152.5984746130      1.05E-07  00000
Finding J and K together
 Job number = 22, Threshold = 1.00E-11
Integral type ranges set in mkLRange.C for JobNum: 22  <1-6|1-6>
 MakeJK  time:  CPU       0.10 s  wall       0.10 s
Fock build time:  0.10 s (CPU) 0.10 s (wall)
DIIS Errors:  Max 3.07E-07 RMS 3.66E-08

Current DIIS subspace size = 14
REM_GRID_RESTART_DIIS = 0

   14    -152.5984746131      3.66E-08  00000
Finding J and K together
 Job number = 22, Threshold = 1.00E-11
Integral type ranges set in mkLRange.C for JobNum: 22  <1-6|1-6>
 MakeJK  time:  CPU       0.10 s  wall       0.10 s
Fock build time:  0.10 s (CPU) 0.10 s (wall)
DIIS Errors:  Max 6.05E-08 RMS 9.44E-09

Current DIIS subspace size = 15
REM_GRID_RESTART_DIIS = 0

   15    -152.5984746131      9.44E-09  00000 Convergence criterion met
 ---------------------------------------
 SCF time:  CPU 1.79 s  wall 1.80 s
 SCF   energy in the final basis set = -152.59847461
 Total energy in the final basis set = -152.59847461
drvman_main.C: 73: calling DrvMan  Calculating analytic gradient of the SCF energy
drvman.C : 218: Calculating analytic gradient of the SCF energy
drvman.C: 244: calling SCF_Grad for normal SCF gradient
 Job number = 111, Threshold = 1.00E-11
Integral type ranges set in mkLRange.C for JobNum: 11  <1-6|7-7>
Finding J and K together
 ML is being used
 Job number = 122, Threshold = 1.00E-11
Integral type ranges set in mkLRange.C for JobNum: 22  <1-6|1-6>
 MakeJK  time:  CPU       0.38 s  wall       0.38 s
 Gradient of SCF Energy
            1           2           3           4           5           6
    1  -0.0193256  -0.1443178  -0.0400188   0.0319838   0.2671287  -0.1498150
    2   0.0215682  -0.0320076  -0.0953252  -0.0068653   0.1300826  -0.0654360
    3   0.0003249  -0.1744751  -0.0212182   0.1409540  -0.1459000   0.1102495
            7           8           9          10
    1   0.0591441  -0.0957094   0.0645380   0.0263920
    2   0.0215965  -0.0382391   0.0520204   0.0126055
    3   0.0203526  -0.0092352   0.1037806  -0.0248331
 Max gradient component =       2.671E-01
 RMS gradient           =       9.449E-02
drvman.C: 248: out of SCF_Grad for normal SCF gradient
 Gradient time:  CPU 0.39 s  wall 0.39 s
 ------------------------------------------------------------------------------
                     drvman        : Timing summary (seconds)
 ------------------------------------------------------------------------------
     job step          cpu (% of tot)      sys (% of tot)     wall (% of tot)
 ------------------------------------------------------------------------------
 ------------------------------------------------------------------------------
   Grand Totals     0.3880E+00          0.1000E-05          0.3937E+00
 ------------------------------------------------------------------------------
drvman_main.C: 77: out of DrvMan  Time for this dynamics step: 2.2 s (CPU) 2.2 s (wall)

TIME STEP #6 (t = 100.000 a.u. = 2.41888 fs)
--------------------------------------
 Instantaneous Temperature = 6640.1 K
 ----------------------------------------------------------------
             Standard Nuclear Orientation (Angstroms)
    I     Atom           X                Y                Z
 ----------------------------------------------------------------
    1      C       3.8774588865    -0.7727967664    -0.7570757674
    2      C       4.3516336739     0.2590767482    -1.6260615270
    3      H       3.3904705908    -1.7951937058    -1.0755002315
    4      H       4.1120765460    -0.7630954672     0.5182517341
    5      C       4.6674027954     0.5669603184    -3.2395266242
    6      C       3.2999079064    -0.0548121150    -3.5381033839
    7      H       3.4811785020    -0.1017107571    -4.6296878955
    8      H       2.1098933783    -0.4776049892    -3.2646063546
    9      H       5.0026078083     0.9723385438    -0.7210389073
   10      H       5.5265686295     0.8369860674    -3.9155323713
 ----------------------------------------------------------------
 Nuclear Repulsion Energy =    96.9053239857 hartrees
 There are       15 alpha and       15 beta electrons

                       Distance Matrix (Angstroms)
             C (  1)   C (  2)   H (  3)   H (  4)   C (  5)   C (  6)
   C (  2)  1.429944
   H (  3)  1.176370  2.333876
   H (  4)  1.296765  2.387531  2.031253
   C (  5)  2.929424  1.672654  3.448672  4.024715
   C (  6)  2.929707  2.204667  3.016877  4.197058  1.531598
   H (  7)  3.950256  3.147957  3.938066  5.228455  1.945970  1.107527
   H (  8)  3.082067  2.872791  2.857989  4.289552  2.762716  1.292164
   H (  9)  2.076718  1.323471  3.222400  2.310978  2.572834  3.448199
   H ( 10)  3.909835  2.637447  4.422337  4.921330  1.126083  2.428122
             H (  7)   H (  8)   H (  9)
   H (  8)  1.971083
   H (  9)  4.329650  4.115807
   H ( 10)  2.361099  3.718269  3.240007

 Applying Cartesian multipole field
[...]
     (0,0,2)       -3.00000E-11
 Nucleus-field energy     =    -0.0000000208 hartrees
 ENuRep (before)= 102.9989309620
 ENucField = -0.0000000208
 ENuRep (after) = 102.9989309413
 Job number = 2, Threshold = 1.00E-11
Integral type ranges set in mkLRange.C for JobNum: 2  <1-6|1-6>
Symmetry turned off temporarily
Symmetry turned back on
 Job number = 11, Threshold = 1.00E-11
Integral type ranges set in mkLRange.C for JobNum: 11  <1-6|7-7>
 Smallest overlap matrix eigenvalue = 1.81E-01
 Multipole matrices computed through 2nd order
 Extrapolating the Fock matrix using 12 points and a 6th-order polynomial
 Alpha Fock matrix extrapolation
 Skip SCF guess (diagonalize extrapolated Fock matrix instead)
 SCF convergence criterion is 10**(-8)
 A restricted Hartree-Fock SCF calculation will be
 performed using Pulay DIIS extrapolation
 SCF converges when DIIS error is below 1.0E-08
Extrapolated Fock matrix used in lieu of Fock build
Fock build time:  0.00 s (CPU) 0.00 s (wall)
DIIS Errors:  Max 1.55E-01 RMS 2.06E-02

Current DIIS subspace size = 1
REM_GRID_RESTART_DIIS = 0

 ---------------------------------------
  Cycle       Energy         DIIS Error
 ---------------------------------------
    1    -306.8901986905      2.06E-02  00000
Finding J and K together
 Job number = 22, Threshold = 1.00E-11
Integral type ranges set in mkLRange.C for JobNum: 22  <1-6|1-6>
 MakeJK  time:  CPU       0.20 s  wall       0.20 s
Fock build time:  0.20 s (CPU) 0.20 s (wall)
DIIS Errors:  Max 1.91E-01 RMS 1.61E-02

Current DIIS subspace size = 2
REM_GRID_RESTART_DIIS = 0

    2    -152.5108883838      1.61E-02  00000
Finding J and K together
 Job number = 22, Threshold = 1.00E-11
Integral type ranges set in mkLRange.C for JobNum: 22  <1-6|1-6>
 MakeJK  time:  CPU       0.20 s  wall       0.20 s
Fock build time:  0.20 s (CPU) 0.20 s (wall)
DIIS Errors:  Max 8.75E-02 RMS 7.55E-03

Current DIIS subspace size = 3
REM_GRID_RESTART_DIIS = 0

    3    -152.5156313804      7.55E-03  00000
Finding J and K together
 Job number = 22, Threshold = 1.00E-11
Integral type ranges set in mkLRange.C for JobNum: 22  <1-6|1-6>
 MakeJK  time:  CPU       0.20 s  wall       0.20 s
Fock build time:  0.20 s (CPU) 0.20 s (wall)
DIIS Errors:  Max 3.91E-03 RMS 4.86E-04

Current DIIS subspace size = 4
REM_GRID_RESTART_DIIS = 0

    4    -152.5172636445      4.86E-04  00000
Finding J and K together
 Job number = 22, Threshold = 1.00E-11
Integral type ranges set in mkLRange.C for JobNum: 22  <1-6|1-6>
 MakeJK  time:  CPU       0.20 s  wall       0.21 s
Fock build time:  0.21 s (CPU) 0.21 s (wall)
DIIS Errors:  Max 1.36E-03 RMS 1.57E-04

Current DIIS subspace size = 5
REM_GRID_RESTART_DIIS = 0

    5    -152.5172888811      1.57E-04  00000
Finding J and K together
 Job number = 22, Threshold = 1.00E-11
Integral type ranges set in mkLRange.C for JobNum: 22  <1-6|1-6>
 MakeJK  time:  CPU       0.20 s  wall       0.20 s
Fock build time:  0.20 s (CPU) 0.20 s (wall)
DIIS Errors:  Max 2.40E-04 RMS 4.07E-05

Current DIIS subspace size = 6
REM_GRID_RESTART_DIIS = 0

    6    -152.5172927766      4.07E-05  00000
Finding J and K together
 Job number = 22, Threshold = 1.00E-11
Integral type ranges set in mkLRange.C for JobNum: 22  <1-6|1-6>
 MakeJK  time:  CPU       0.20 s  wall       0.20 s
Fock build time:  0.20 s (CPU) 0.20 s (wall)
DIIS Errors:  Max 1.14E-04 RMS 1.48E-05

Current DIIS subspace size = 7
REM_GRID_RESTART_DIIS = 0

    7    -152.5172932286      1.48E-05  00000
Finding J and K together
 Job number = 22, Threshold = 1.00E-11
Integral type ranges set in mkLRange.C for JobNum: 22  <1-6|1-6>
 MakeJK  time:  CPU       0.20 s  wall       0.20 s
Fock build time:  0.20 s (CPU) 0.20 s (wall)
DIIS Errors:  Max 3.49E-05 RMS 4.78E-06

Current DIIS subspace size = 8
REM_GRID_RESTART_DIIS = 0

    8    -152.5172933242      4.78E-06  00000
Finding J and K together
 Job number = 22, Threshold = 1.00E-11
Integral type ranges set in mkLRange.C for JobNum: 22  <1-6|1-6>
 MakeJK  time:  CPU       0.20 s  wall       0.20 s
Fock build time:  0.20 s (CPU) 0.20 s (wall)
DIIS Errors:  Max 1.08E-05 RMS 1.73E-06

Current DIIS subspace size = 9
REM_GRID_RESTART_DIIS = 0

    9    -152.5172933325      1.73E-06  00000
Finding J and K together
 Job number = 22, Threshold = 1.00E-11
Integral type ranges set in mkLRange.C for JobNum: 22  <1-6|1-6>
 MakeJK  time:  CPU       0.20 s  wall       0.20 s
Fock build time:  0.20 s (CPU) 0.20 s (wall)
DIIS Errors:  Max 5.42E-06 RMS 7.30E-07

Current DIIS subspace size = 10
REM_GRID_RESTART_DIIS = 0

   10    -152.5172933333      7.30E-07  00000
Finding J and K together
 Job number = 22, Threshold = 1.00E-11
Integral type ranges set in mkLRange.C for JobNum: 22  <1-6|1-6>
 MakeJK  time:  CPU       0.20 s  wall       0.20 s
Fock build time:  0.20 s (CPU) 0.20 s (wall)
DIIS Errors:  Max 1.46E-06 RMS 2.06E-07

Current DIIS subspace size = 11
REM_GRID_RESTART_DIIS = 0

   11    -152.5172933336      2.06E-07  00000
Finding J and K together
 Job number = 22, Threshold = 1.00E-11
Integral type ranges set in mkLRange.C for JobNum: 22  <1-6|1-6>
 MakeJK  time:  CPU       0.20 s  wall       0.20 s
Fock build time:  0.20 s (CPU) 0.20 s (wall)
DIIS Errors:  Max 5.13E-07 RMS 6.13E-08

Current DIIS subspace size = 12
REM_GRID_RESTART_DIIS = 0

   12    -152.5172933336      6.13E-08  00000
Finding J and K together
 Job number = 22, Threshold = 1.00E-11
Integral type ranges set in mkLRange.C for JobNum: 22  <1-6|1-6>
 MakeJK  time:  CPU       0.20 s  wall       0.20 s
Fock build time:  0.20 s (CPU) 0.21 s (wall)
DIIS Errors:  Max 1.11E-07 RMS 1.79E-08

Current DIIS subspace size = 13
REM_GRID_RESTART_DIIS = 0

   13    -152.5172933336      1.79E-08  00000
Finding J and K together
 Job number = 22, Threshold = 1.00E-11
Integral type ranges set in mkLRange.C for JobNum: 22  <1-6|1-6>
 MakeJK  time:  CPU       0.20 s  wall       0.20 s
Fock build time:  0.20 s (CPU) 0.20 s (wall)
DIIS Errors:  Max 2.24E-08 RMS 4.32E-09

Current DIIS subspace size = 14
REM_GRID_RESTART_DIIS = 0

   14    -152.5172933336      4.32E-09  00000 Convergence criterion met
 ---------------------------------------
 SCF time:  CPU 2.62 s  wall 2.65 s
 SCF   energy in the final basis set = -152.51729333
 Total energy in the final basis set = -152.51729333
drvman_main.C: 73: calling DrvMan  Calculating analytic gradient of the SCF energy
drvman.C : 218: Calculating analytic gradient of the SCF energy
drvman.C: 244: calling SCF_Grad for normal SCF gradient
 Job number = 111, Threshold = 1.00E-11
Integral type ranges set in mkLRange.C for JobNum: 11  <1-6|7-7>
Finding J and K together
 ML is being used
 Job number = 122, Threshold = 1.00E-11
Integral type ranges set in mkLRange.C for JobNum: 22  <1-6|1-6>
 MakeJK  time:  CPU       0.52 s  wall       0.52 s
 Gradient of SCF Energy
            1           2           3           4           5           6
    1  -0.0755916  -0.0535254  -0.0809871   0.1115315  -0.0643147   0.0969130
    2   0.0894725  -0.0860737  -0.1117560   0.0032479   0.0391476   0.0013581
    3   0.0313619   0.0223833   0.0108885  -0.0414039  -0.0439231   0.2302728
            7           8           9          10
    1  -0.1127500   0.0866227   0.0143298   0.0777718
    2   0.0045920   0.0151704   0.0431720   0.0016691
    3  -0.0830712  -0.0383520  -0.1341852   0.0460288
 Max gradient component =       2.303E-01
 RMS gradient           =       7.872E-02
drvman.C: 248: out of SCF_Grad for normal SCF gradient
 Gradient time:  CPU 0.54 s  wall 0.54 s
 ------------------------------------------------------------------------------
                     drvman        : Timing summary (seconds)
 ------------------------------------------------------------------------------
     job step          cpu (% of tot)      sys (% of tot)     wall (% of tot)
 ------------------------------------------------------------------------------
 ------------------------------------------------------------------------------
   Grand Totals     0.5360E+00          0.2000E-05          0.5400E+00
 ------------------------------------------------------------------------------
drvman_main.C: 77: out of DrvMan  Time for this dynamics step: 3.2 s (CPU) 3.2 s (wall)

TIME STEP #400 (t = 7980.000 a.u. = 193.02697 fs)
--------------------------------------
 Instantaneous Temperature = 4936.3 K
 ----------------------------------------------------------------
             Standard Nuclear Orientation (Angstroms)
    I     Atom           X                Y                Z
 ----------------------------------------------------------------
    1      C       4.0087951663    -0.2633450286    -0.5124086225
    2      C       4.0136247121     0.3674605997    -1.7226831956
    3      H       3.2197123768    -1.3812303263    -0.3390391509
    4      H       5.2440442733    -0.3321549349    -0.3430328171
    5      C       3.5144921127     0.1217477876    -3.0344096185
    6      C       4.5413591766    -0.2999107783    -3.7039827346
    7      H       3.4593251225    -0.3516037531    -5.1206117265
    8      H       5.7669680690    -0.2154217892    -3.9696593710
    9      H       4.7671632831     1.2389700144    -2.3472303059
   10      H       2.5721540082     0.5761108135    -3.1984778408
 ----------------------------------------------------------------
 Nuclear Repulsion Energy =   102.6897769097 hartrees
 There are       15 alpha and       15 beta electrons

                       Distance Matrix (Angstroms)
             C (  1)   C (  2)   H (  3)   H (  4)   C (  5)   C (  6)
   C (  2)  1.364809
   H (  3)  1.379267  2.367000
   H (  4)  1.248705  1.976570  2.280021
   C (  5)  2.598677  1.424828  3.100139  3.231236
   C (  6)  3.235909  2.156255  3.773440  3.433772  1.296372
   H (  7)  4.641685  3.517132  4.897038  5.100084  2.139940  1.783342
   H (  8)  3.878924  2.909101  4.585741  3.665992  2.462118  1.256917
   H (  9)  2.489707  1.310499  3.645941  2.590880  1.813722  2.063957
   H ( 10)  3.159682  2.073486  3.525182  4.014662  1.058945  2.213757
             H (  7)   H (  8)   H (  9)
   H (  8)  2.582335
   H (  9)  3.454274  2.397320
   H ( 10)  2.311347  3.380545  2.445827

 Applying Cartesian multipole field
    Component          Value
    ---------          -----
     (2,0,0)        1.00000E-12
     (0,2,0)        2.00000E-11
     (0,0,2)       -3.00000E-11
 Nucleus-field energy     =    -0.0000000208 hartrees
 ENuRep (before)= 102.6897769097
 ENucField = -0.0000000208
 ENuRep (after) = 102.6897768889
 Job number = 2, Threshold = 1.00E-11
Integral type ranges set in mkLRange.C for JobNum: 2  <1-6|1-6>
Symmetry turned off temporarily
Symmetry turned back on
 Job number = 11, Threshold = 1.00E-11
Integral type ranges set in mkLRange.C for JobNum: 11  <1-6|7-7>
 Smallest overlap matrix eigenvalue = 1.71E-01
 Multipole matrices computed through 2nd order
 Extrapolating the Fock matrix using 12 points and a 6th-order polynomial
 Alpha Fock matrix extrapolation
 Skip SCF guess (diagonalize extrapolated Fock matrix instead)
 SCF convergence criterion is 10**(-8)
 A restricted Hartree-Fock SCF calculation will be
 performed using Pulay DIIS extrapolation
 SCF converges when DIIS error is below 1.0E-08
Extrapolated Fock matrix used in lieu of Fock build
Fock build time:  0.00 s (CPU) 0.00 s (wall)
DIIS Errors:  Max 1.21E-01 RMS 1.93E-02

Current DIIS subspace size = 1
REM_GRID_RESTART_DIIS = 0

 ---------------------------------------
  Cycle       Energy         DIIS Error
 ---------------------------------------
    1    -306.8460382324      1.93E-02  00000
Finding J and K together
 Job number = 22, Threshold = 1.00E-11
Integral type ranges set in mkLRange.C for JobNum: 22  <1-6|1-6>
 MakeJK  time:  CPU       0.20 s  wall       0.20 s
Fock build time:  0.20 s (CPU) 0.20 s (wall)
DIIS Errors:  Max 1.23E-01 RMS 1.47E-02

Current DIIS subspace size = 2
REM_GRID_RESTART_DIIS = 0

    2    -152.5111794377      1.47E-02  00000
Finding J and K together
 Job number = 22, Threshold = 1.00E-11
Integral type ranges set in mkLRange.C for JobNum: 22  <1-6|1-6>
 MakeJK  time:  CPU       0.19 s  wall       0.19 s
Fock build time:  0.19 s (CPU) 0.19 s (wall)
DIIS Errors:  Max 5.66E-02 RMS 6.73E-03

Current DIIS subspace size = 3
REM_GRID_RESTART_DIIS = 0

    3    -152.5153463585      6.73E-03  00000
Finding J and K together
 Job number = 22, Threshold = 1.00E-11
Integral type ranges set in mkLRange.C for JobNum: 22  <1-6|1-6>
 MakeJK  time:  CPU       0.20 s  wall       0.20 s
Fock build time:  0.20 s (CPU) 0.20 s (wall)
DIIS Errors:  Max 6.35E-03 RMS 8.24E-04

Current DIIS subspace size = 4
REM_GRID_RESTART_DIIS = 0

    4    -152.5165640005      8.24E-04  00000
Finding J and K together
 Job number = 22, Threshold = 1.00E-11
Integral type ranges set in mkLRange.C for JobNum: 22  <1-6|1-6>
 MakeJK  time:  CPU       0.20 s  wall       0.20 s
Fock build time:  0.20 s (CPU) 0.20 s (wall)
DIIS Errors:  Max 1.73E-03 RMS 1.93E-04

Current DIIS subspace size = 5
REM_GRID_RESTART_DIIS = 0

    5    -152.5166297977      1.93E-04  00000
Finding J and K together
 Job number = 22, Threshold = 1.00E-11
Integral type ranges set in mkLRange.C for JobNum: 22  <1-6|1-6>
 MakeJK  time:  CPU       0.20 s  wall       0.20 s
Fock build time:  0.20 s (CPU) 0.20 s (wall)
DIIS Errors:  Max 2.84E-04 RMS 5.94E-05

Current DIIS subspace size = 6
REM_GRID_RESTART_DIIS = 0

    6    -152.5166389534      5.94E-05  00000
Finding J and K together
 Job number = 22, Threshold = 1.00E-11
Integral type ranges set in mkLRange.C for JobNum: 22  <1-6|1-6>
 MakeJK  time:  CPU       0.20 s  wall       0.20 s
Fock build time:  0.20 s (CPU) 0.20 s (wall)
DIIS Errors:  Max 1.37E-04 RMS 2.40E-05

Current DIIS subspace size = 7
REM_GRID_RESTART_DIIS = 0

    7    -152.5166399584      2.40E-05  00000
Finding J and K together
 Job number = 22, Threshold = 1.00E-11
Integral type ranges set in mkLRange.C for JobNum: 22  <1-6|1-6>
 MakeJK  time:  CPU       0.20 s  wall       0.20 s
Fock build time:  0.20 s (CPU) 0.20 s (wall)
DIIS Errors:  Max 5.24E-05 RMS 7.96E-06

Current DIIS subspace size = 8
REM_GRID_RESTART_DIIS = 0

    8    -152.5166401284      7.96E-06  00000
Finding J and K together
 Job number = 22, Threshold = 1.00E-11
Integral type ranges set in mkLRange.C for JobNum: 22  <1-6|1-6>
 MakeJK  time:  CPU       0.20 s  wall       0.20 s
Fock build time:  0.20 s (CPU) 0.20 s (wall)
DIIS Errors:  Max 1.14E-05 RMS 2.08E-06

Current DIIS subspace size = 9
REM_GRID_RESTART_DIIS = 0

    9    -152.5166401399      2.08E-06  00000
Finding J and K together
 Job number = 22, Threshold = 1.00E-11
Integral type ranges set in mkLRange.C for JobNum: 22  <1-6|1-6>
 MakeJK  time:  CPU       0.20 s  wall       0.20 s
Fock build time:  0.20 s (CPU) 0.20 s (wall)
DIIS Errors:  Max 3.72E-06 RMS 5.49E-07

Current DIIS subspace size = 10
REM_GRID_RESTART_DIIS = 0

   10    -152.5166401411      5.49E-07  00000
Finding J and K together
 Job number = 22, Threshold = 1.00E-11
Integral type ranges set in mkLRange.C for JobNum: 22  <1-6|1-6>
 MakeJK  time:  CPU       0.20 s  wall       0.20 s
Fock build time:  0.20 s (CPU) 0.20 s (wall)
DIIS Errors:  Max 1.21E-06 RMS 1.65E-07

Current DIIS subspace size = 11
REM_GRID_RESTART_DIIS = 0

   11    -152.5166401412      1.65E-07  00000
Finding J and K together
 Job number = 22, Threshold = 1.00E-11
Integral type ranges set in mkLRange.C for JobNum: 22  <1-6|1-6>
 MakeJK  time:  CPU       0.20 s  wall       0.20 s
Fock build time:  0.20 s (CPU) 0.20 s (wall)
DIIS Errors:  Max 4.31E-07 RMS 5.27E-08

Current DIIS subspace size = 12
REM_GRID_RESTART_DIIS = 0

   12    -152.5166401412      5.27E-08  00000
Finding J and K together
 Job number = 22, Threshold = 1.00E-11
Integral type ranges set in mkLRange.C for JobNum: 22  <1-6|1-6>
 MakeJK  time:  CPU       0.20 s  wall       0.20 s
Fock build time:  0.20 s (CPU) 0.20 s (wall)
DIIS Errors:  Max 1.30E-07 RMS 1.47E-08

Current DIIS subspace size = 13
REM_GRID_RESTART_DIIS = 0

   13    -152.5166401412      1.47E-08  00000
Finding J and K together
 Job number = 22, Threshold = 1.00E-11
Integral type ranges set in mkLRange.C for JobNum: 22  <1-6|1-6>
 MakeJK  time:  CPU       0.20 s  wall       0.20 s
Fock build time:  0.20 s (CPU) 0.20 s (wall)
DIIS Errors:  Max 2.99E-08 RMS 3.89E-09

Current DIIS subspace size = 14
REM_GRID_RESTART_DIIS = 0

   14    -152.5166401412      3.89E-09  00000 Convergence criterion met
 ---------------------------------------
 SCF time:  CPU 2.60 s  wall 2.61 s
 SCF   energy in the final basis set = -152.51664014
 Total energy in the final basis set = -152.51664014
drvman_main.C: 73: calling DrvMan  Calculating analytic gradient of the SCF energy
drvman.C : 218: Calculating analytic gradient of the SCF energy
drvman.C: 244: calling SCF_Grad for normal SCF gradient
 Job number = 111, Threshold = 1.00E-11
Integral type ranges set in mkLRange.C for JobNum: 11  <1-6|7-7>
Finding J and K together
 ML is being used
 Job number = 122, Threshold = 1.00E-11
Integral type ranges set in mkLRange.C for JobNum: 22  <1-6|1-6>
 MakeJK  time:  CPU       0.50 s  wall       0.51 s
 Gradient of SCF Energy
            1           2           3           4           5           6
    1  -0.0571240  -0.0752161  -0.0805605   0.0996887   0.0092853   0.0464799
    2   0.0827849  -0.0799951  -0.1132442  -0.0045489   0.0069539   0.0079852
    3   0.0563294  -0.0324992   0.0152304  -0.0360820  -0.0340817   0.2528777
            7           8           9          10
    1  -0.1102327   0.1072193   0.0276119   0.0328482
    2   0.0080865   0.0180914   0.0529226   0.0209637
    3  -0.0853846  -0.0401298  -0.1315911   0.0353310
 Max gradient component =       2.529E-01
 RMS gradient           =       7.773E-02
drvman.C: 248: out of SCF_Grad for normal SCF gradient
 Gradient time:  CPU 0.52 s  wall 0.53 s
 ------------------------------------------------------------------------------
                     drvman        : Timing summary (seconds)
 ------------------------------------------------------------------------------
     job step          cpu (% of tot)      sys (% of tot)     wall (% of tot)
 ------------------------------------------------------------------------------
 ------------------------------------------------------------------------------
   Grand Totals     0.5240E+00          0.2000E-05          0.5290E+00
 ------------------------------------------------------------------------------
drvman_main.C: 77: out of DrvMan  Time for this dynamics step: 3.2 s (CPU) 3.2 s (wall)

=============== TIME STEPS COMPLETED ==================

Step-to-Step energy fluctuations, |E(n) - E(n-1)|
Mean: -5.078e-06   Max: 9.158e-03   RMS: 1.919e-03
Overall energy fluctuations, |E(n) - E(0)|
Mean: -2.960e-03   Max: 9.272e-03   RMS: 1.924e-03   RMS(dE)/RMS(dV): 2.259e-02
Kinetic energy fluctuations, |T(n) - V(0)|
Mean: 3.268e-01   Max: 5.943e-01   RMS: 8.401e-02
Potential energy fluctuations, |V(n) - V(0)|
Mean: -3.298e-01   Max: 6.007e-01   RMS: 8.515e-02


 JobOver = TRUE
Archival summary:
1\1\qciep03\JobtypUnspecified\HF\STO-3G\46\jcartus\MonJun1812:10:352018MonJun1812:10:352018\0\\#,JobtypUnspecified,HF,STO-3G,\\0,1\C\H,1,1.3105\C,1,1.36481,2,137.055\H,3,1.2487,1,98.1782,2,-32.0392,0\H,3,1.37927,1,119.215,2,-163.646,0\C,1,1.42483,2,82.9561,3,-162.731,0\H,6,1.05895,1,112.357,2,-102.531,0\C,6,1.29637,1,104.721,2,61.7624,0\H,8,1.25692,6,149.282,1,-40.2575,0\H,8,1.78334,6,86.5091,1,-177.328,0\\HF=-152.51664\\@

 Total job time:  1025.83s(wall), 1005.05s(cpu) 
 Mon Jun 18 12:10:35 2018

        *************************************************************
        *                                                           *
        *  Thank you very much for using Q-Chem.  Have a nice day.  *
        *                                                           *
        *************************************************************


*** MISSION COMPLETED -- STARFLEET OUT ***

0 sent ACK to 0 
now end server 0 ... 
