Process 0 of 1 is on qciep03 - thread support 0
initial socket setup ...start
initial socket setup ...done 
now start server 0 ... 
qciep03.tugraz.at 127.0.1
Q-Chem Developer Version! Running on 127.0.1.*
                  Welcome to Q-Chem
     A Quantum Leap Into The Future Of Chemistry


 Q-Chem 5.0, Q-Chem, Inc., Pleasanton, CA (2017)

 Yihan Shao,  Zhengting Gan,  E. Epifanovsky,  A. T. B. Gilbert,  M. Wormit,  
 J. Kussmann,  A. W. Lange,  A. Behn,  Jia Deng,  Xintian Feng,  D. Ghosh,  
 M. Goldey,  P. R. Horn,  L. D. Jacobson,  I. Kaliman,  T. Kus,  A. Landau,  
 Jie Liu,  E. I. Proynov,  R. M. Richard,  R. P. Steele,  E. J. Sundstrom,  
 H. L. Woodcock III,  P. M. Zimmerman,  D. Zuev,  B. Albrecht,  E. Alguire,  
 S. A. Baeppler,  D. Barton,  Z. Benda,  Y. A. Bernard,  E. J. Berquist,  
 K. B. Bravaya,  H. Burton,  D. Casanova,  Chun-Min Chang,  Yunqing Chen,  
 A. Chien,  K. D. Closser,  M. P. Coons,  S. Dasgupta,  A. L. Dempwolff,  
 M. Diedenhofen,  Hainam Do,  R. G. Edgar,  Po-Tung Fang,  S. Fatehi,  
 Qingguo Feng,  J. Fosso-Tande,  Qinghui Ge,  A. Ghysels,  G. Gidofalvi,  
 J. Gomes,  J. Gonthier,  A. Gunina,  M. W. D. Hanson-Heine,  
 P. H. P. Harbach,  A. W. Hauser,  J. E. Herr,  E. G. Hohenstein,  
 Z. C. Holden,  Kerwin Hui,  T.-C. Jagau,  Hyunjun Ji,  B. Kaduk,  
 K. Khistyaev,  Jaehoon Kim,  P. Klunzinger,  K. Koh,  D. Kosenkov,  
 L. Koulias,  T. Kowalczyk,  C. M. Krauter,  A. Kunitsa,  Ka Un Lao,  
 A. Laurent,  K. V. Lawler,  Joonho Lee,  D. Lefrancois,  S. Lehtola,  
 D. S. Levine,  Yi-Pei Li,  You-Sheng Lin,  Fenglai Liu,  E. Livshits,  
 A. Luenser,  P. Manohar,  E. Mansoor,  S. F. Manzer,  Shan-Ping Mao,  
 Yuezhi Mao,  N. Mardirossian,  A. V. Marenich,  T. Markovich,  
 L. A. Martinez-Martinez,  S. A. Maurer,  N. J. Mayhall,  S. C. McKenzie,  
 J.-M. Mewes,  A. F. Morrison,  J. W. Mullinax,  K. Nanda,  
 T. S. Nguyen-Beck,  R. Olivares-Amaya,  J. A. Parkhill,  T. M. Perrine,  
 F. Plasser,  S. Prager,  A. Prociuk,  E. Ramos,  D. R. Rehn,  F. Rob,  
 M. Schneider,  N. Sergueev,  S. M. Sharada,  S. Sharma,  D. W. Small,  
 T. Stauch,  T. Stein,  Yu-Chuan Su,  A. J. W. Thom,  A. Tkatchenko,  
 T. Tsuchimochi,  L. Vogt,  O. Vydrov,  M. A. Watson,  J. Wenzel,  
 M. de Wergifosse,  T. A. Wesolowski,  A. White,  J. Witte,  A. Yamada,  
 Jun Yang,  K. Yao,  S. Yeganeh,  S. R. Yost,  Zhi-Qiang You,  A. Zech,  
 Igor Ying Zhang,  Xing Zhang,  Yan Zhao,  Ying Zhu,  B. R. Brooks,  
 G. K. L. Chan,  C. J. Cramer,  M. S. Gordon,  W. J. Hehre,  A. Klamt,  
 M. W. Schmidt,  C. D. Sherrill,  D. G. Truhlar,  A. Aspuru-Guzik,  R. Baer,  
 A. T. Bell,  N. A. Besley,  Jeng-Da Chai,  R. A. DiStasio Jr.,  A. Dreuw,  
 B. D. Dunietz,  T. R. Furlani,  Chao-Ping Hsu,  Yousung Jung,  Jing Kong,  
 D. S. Lambrecht,  WanZhen Liang,  C. Ochsenfeld,  V. A. Rassolov,  
 L. V. Slipchenko,  J. E. Subotnik,  T. Van Voorhis,  J. M. Herbert,  
 A. I. Krylov,  P. M. W. Gill,  M. Head-Gordon

 Contributors to earlier versions of Q-Chem not listed above: 
 R. D. Adamson,  B. Austin,  J. Baker,  G. J. O. Beran,  K. Brandhorst,  
 S. T. Brown,  E. F. C. Byrd,  A. K. Chakraborty,  C.-L. Cheng,  
 Siu Hung Chien,  D. M. Chipman,  D. L. Crittenden,  H. Dachsel,  
 R. J. Doerksen,  A. D. Dutoi,  L. Fusti-Molnar,  W. A. Goddard III,  
 A. Golubeva-Zadorozhnaya,  S. R. Gwaltney,  G. Hawkins,  A. Heyden,  
 S. Hirata,  G. Kedziora,  F. J. Keil,  C. Kelley,  Jihan Kim,  R. A. King,  
 R. Z. Khaliullin,  P. P. Korambath,  W. Kurlancheek,  A. M. Lee,  M. S. Lee,  
 S. V. Levchenko,  Ching Yeh Lin,  D. Liotard,  R. C. Lochan,  I. Lotan,  
 P. E. Maslen,  N. Nair,  D. P. O'Neill,  D. Neuhauser,  E. Neuscamman,  
 C. M. Oana,  R. Olson,  B. Peters,  R. Peverati,  P. A. Pieniazek,  
 Y. M. Rhee,  J. Ritchie,  M. A. Rohrdanz,  E. Rosta,  N. J. Russ,  
 H. F. Schaefer III,  N. E. Schultz,  N. Shenvi,  A. C. Simmonett,  A. Sodt,  
 D. Stuck,  K. S. Thanthiriwatte,  V. Vanovschi,  Tao Wang,  A. Warshel,  
 C. F. Williams,  Q. Wu,  X. Xu,  W. Zhang

 Please cite Q-Chem as follows:
 Y. Shao et al., Mol. Phys. 113, 184-215 (2015)
 DOI: 10.1080/00268976.2014.952696

 Q-Chem 5.0.2 for Intel X86 EM64T Linux

 Parts of Q-Chem use Armadillo 5.200.1 (Boston Tea Smuggler).
 http://arma.sourceforge.net/

 Q-Chem begins on Mon Jun 18 12:18:45 2018  


Host: 0

     Scratch files written to /home/jcartus/scratch/Butadien_13.mol.dir//
 Using version located at /usr/local/qchem/bin/qchem

 Parallel job on  1  processors
Symmetry disabled for AIMD jobs.

Total Memory Limit in MB = 2000
Mega-Array Size in MB = 192

Checking the input file for inconsistencies... 	...done.
Finally everything over in PARseQInput

--------------------------------------------------------------
User input:
--------------------------------------------------------------
$rem
AIMD_STEPS                    400
FOCK_EXTRAP_POINTS            12
MAX_SCF_CYCLES                100
BASIS                         sto-3g
AIMD_INIT_VELOC               thermal
FOCK_EXTRAP_ORDER             6
AIMD_TEMP                     400
AIMD_METHOD                   bomd
TIME_STEP                     20
METHOD                        hf
JOBTYPE                       aimd
$end

$molecule
0 1
C    5.40431    -0.88911    -0.33644
C    4.31190    -0.11750    -0.30824
H    6.22960    -0.69947    0.34271
H    5.50809    -1.72011    -1.02676
C    3.18577    -0.32114    -1.18516
C    2.09463    0.45272    -1.16054
H    1.26970    0.26254    -1.83996
H    1.99223    1.28659    -0.47348
H    4.26145    0.70291    0.40466
H    3.23494    -1.14384    -1.89555
$end


--------------------------------------------------------------
 ----------------------------------------------------------------
             Standard Nuclear Orientation (Angstroms)
    I     Atom           X                Y                Z
 ----------------------------------------------------------------
    1      C       5.4043100000    -0.8891100000    -0.3364400000
    2      C       4.3119000000    -0.1175000000    -0.3082400000
    3      H       6.2296000000    -0.6994700000     0.3427100000
    4      H       5.5080900000    -1.7201100000    -1.0267600000
    5      C       3.1857700000    -0.3211400000    -1.1851600000
    6      C       2.0946300000     0.4527200000    -1.1605400000
    7      H       1.2697000000     0.2625400000    -1.8399600000
    8      H       1.9922300000     1.2865900000    -0.4734800000
    9      H       4.2614500000     0.7029100000     0.4046600000
   10      H       3.2349400000    -1.1438400000    -1.8955500000
 ----------------------------------------------------------------
 Nuclear Repulsion Energy =   104.1575722550 hartrees
 There are       15 alpha and       15 beta electrons
 Requested basis set is STO-3G
 There are 14 shells and 26 basis functions

 Total QAlloc Memory Limit   2000 MB
 Mega-Array Size       188 MB
 MEM_STATIC part       192 MB

finished with qalloc call

                       Distance Matrix (Angstroms)
             C (  1)   C (  2)   H (  3)   H (  4)   C (  5)   C (  6)
   C (  2)  1.337736
   H (  3)  1.085501  2.107130
   H (  4)  1.085299  2.124971  1.854112
   C (  5)  2.442301  1.441744  3.426722  2.715765
   C (  6)  3.665192  2.442919  4.548107  4.048555  1.337928
   H (  7)  4.547732  3.427182  5.503646  4.749331  2.107313  1.085490
   H (  8)  4.049042  2.716550  4.750358  4.659145  2.125046  1.085300
   H (  9)  2.095205  1.088046  2.417462  3.078003  2.175613  2.684689
   H ( 10)  2.683631  2.175493  3.765005  2.500819  1.088075  2.095125
             H (  7)   H (  8)   H (  9)
   H (  8)  1.854183
   H (  9)  3.766008  2.502233
   H ( 10)  2.417264  3.077922  3.123327

 Job number = 2, Threshold = 1.00E-11
Integral type ranges set in mkLRange.C for JobNum: 2  <1-6|1-6>
Symmetry turned off temporarily
 Using the largest function pair in Schwarz integrals
Total number of integrals generated =            3252
Symmetry turned back on
 A cutoff of  1.0D-11 yielded    102 shell pairs
 There are       372 function pairs
 Job number = 11, Threshold = 1.00E-11
Integral type ranges set in mkLRange.C for JobNum: 11  <1-6|7-7>
Total number of integrals generated =            3720
 Smallest overlap matrix eigenvalue = 1.84E-01
 Multipole matrices computed through 2nd order

 Scale SEOQF with 1.000000e-02/1.000000e-01/1.000000e-01

 Standard Electronic Orientation quadrupole field applied
 Nucleus-field energy     =    -0.0000000001 hartrees
 ENuRep (before)= 104.1575722550
 ENucField = -0.0000000001
 ENuRep (after) = 104.1575722549
 Guess from superposition of atomic densities
 Warning:  Energy on first SCF cycle will be non-variational
 SAD guess density has 30.000000 electrons

 ==================================================
    GEN_SCFMAN: A general SCF calculation manager  
                                                   
    Authors:                                       
        -- Eric Jon Sundstrom 2008-2014            
        -- Paul Horn 2010-2015                     
        -- Yuezhi Mao 2012-                        
        -- Dmitri Zuev 2014                        
        -- Alec White 2015-                        
        -- David Stuck 2015                        
        -- Shaama M.S. 2015                        
        -- Shane Yost 2015-                         
        -- Joonho Lee 2016-                        
        -- David Small 2016-                       
        -- Daniel Levine 2016-                     
        -- Susi Lehtola 2017-                      
        -- Hugh Burton 2017-                       
 ==================================================
 Hartree-Fock
Finding J and K together
 Job number = 22, Threshold = 1.00E-11
Integral type ranges set in mkLRange.C for JobNum: 22  <1-6|1-6>
 MakeJK  time:  CPU       0.15 s  wall       0.15 s
 A restricted SCF calculation will be
 performed using DIIS
 SCF converges when DIIS error is below 1.0e-08
 ---------------------------------------
  Cycle       Energy         DIIS error
 ---------------------------------------
Finding J and K together
 Job number = 22, Threshold = 1.00E-11
Integral type ranges set in mkLRange.C for JobNum: 22  <1-6|1-6>
 MakeJK  time:  CPU       0.20 s  wall       0.19 s
    1    -152.6466968212      2.15e-01  
Finding J and K together
 Job number = 22, Threshold = 1.00E-11
Integral type ranges set in mkLRange.C for JobNum: 22  <1-6|1-6>
 MakeJK  time:  CPU       0.19 s  wall       0.20 s
    2    -152.9904356736      1.29e-02  
Finding J and K together
 Job number = 22, Threshold = 1.00E-11
Integral type ranges set in mkLRange.C for JobNum: 22  <1-6|1-6>
 MakeJK  time:  CPU       0.18 s  wall       0.18 s
    3    -153.0145664122      3.50e-03  
Finding J and K together
 Job number = 22, Threshold = 1.00E-11
Integral type ranges set in mkLRange.C for JobNum: 22  <1-6|1-6>
 MakeJK  time:  CPU       0.12 s  wall       0.13 s
    4    -153.0163560791      1.28e-03  
Finding J and K together
 Job number = 22, Threshold = 1.00E-11
Integral type ranges set in mkLRange.C for JobNum: 22  <1-6|1-6>
 MakeJK  time:  CPU       0.14 s  wall       0.14 s
    5    -153.0165270918      9.61e-05  
Finding J and K together
 Job number = 22, Threshold = 1.00E-11
Integral type ranges set in mkLRange.C for JobNum: 22  <1-6|1-6>
 MakeJK  time:  CPU       0.13 s  wall       0.13 s
    6    -153.0165302854      1.29e-05  
Finding J and K together
 Job number = 22, Threshold = 1.00E-11
Integral type ranges set in mkLRange.C for JobNum: 22  <1-6|1-6>
 MakeJK  time:  CPU       0.12 s  wall       0.12 s
    7    -153.0165303454      1.48e-06  
Finding J and K together
 Job number = 22, Threshold = 1.00E-11
Integral type ranges set in mkLRange.C for JobNum: 22  <1-6|1-6>
 MakeJK  time:  CPU       0.16 s  wall       0.16 s
    8    -153.0165303459      1.05e-07  
Finding J and K together
 Job number = 22, Threshold = 1.00E-11
Integral type ranges set in mkLRange.C for JobNum: 22  <1-6|1-6>
 MakeJK  time:  CPU       0.17 s  wall       0.17 s
    9    -153.0165303459      3.25e-08  
Finding J and K together
 Job number = 22, Threshold = 1.00E-11
Integral type ranges set in mkLRange.C for JobNum: 22  <1-6|1-6>
 MakeJK  time:  CPU       0.18 s  wall       0.20 s
   10    -153.0165303459      1.41e-08  
   11    -153.0165303459      3.68e-09  Convergence criterion met
 ---------------------------------------
 SCF time:   CPU 1.76s  wall 2.00s 
 Total energy in the final basis set =     -153.0165303459
Wall  1 = 2
Clock 1 = 1.7635229826
 ==================================================
                  Done GEN_SCFMAN                  
 ==================================================

Symmetry turned off temporarily

 --------------------------------------------------------------

                    Orbital Energies (a.u.)
 --------------------------------------------------------------

 Alpha MOs
 -- Occupied --
-11.031 -11.030 -11.016 -11.016  -1.036  -0.942  -0.772  -0.708
 -0.591  -0.591  -0.498  -0.491  -0.443  -0.399  -0.261
 -- Virtual --
  0.243   0.421   0.593   0.674   0.684   0.697   0.699   0.880
  0.910   1.025   1.078
 --------------------------------------------------------------

          Ground-State Mulliken Net Atomic Charges

     Atom                 Charge (a.u.)
  ----------------------------------------
      1 C                    -0.124575
      2 C                    -0.059610
      3 H                     0.060917
      4 H                     0.060788
      5 C                    -0.059561
      6 C                    -0.124607
      7 H                     0.060923
      8 H                     0.060758
      9 H                     0.062508
     10 H                     0.062458
  ----------------------------------------
  Sum of atomic charges =     0.000000

 -----------------------------------------------------------------
                    Cartesian Multipole Moments
 -----------------------------------------------------------------
    Charge (ESU x 10^10)
                -0.0000
    Dipole Moment (Debye)
         X       0.0006      Y       0.0000      Z      -0.0001
       Tot       0.0006
    Quadrupole Moments (Debye-Ang)
        XX     -23.1214     XY      -0.6264     YY     -23.2573
        XZ       0.6811     YZ       1.3284     ZZ     -23.5340
    Octopole Moments (Debye-Ang^2)
       XXX    -260.0758    XXY       0.3583    XYY     -86.9283
       YYY      15.2669    XXZ      22.3928    XYZ       5.3027
       YYZ      16.8049    XZZ     -89.2513    YZZ       3.1610
       ZZZ      52.7933
    Hexadecapole Moments (Debye-Ang^3)
      XXXX   -2225.5372   XXXY      74.0334   XXYY    -385.2435
      XYYY     101.5756   YYYY     -81.0660   XXXZ     191.4470
      XXYZ      18.9559   XYYZ      47.7491   YYYZ      -5.6365
      XXZZ    -405.3445   XYZZ      27.3725   YYZZ     -35.8601
      XZZZ     160.8609   YZZZ      -5.1127   ZZZZ    -142.5955
 -----------------------------------------------------------------
drvman_main.C: 73: calling DrvMan  Calculating analytic gradient of the SCF energy
drvman.C : 218: Calculating analytic gradient of the SCF energy
drvman.C: 244: calling SCF_Grad for normal SCF gradient
 Job number = 111, Threshold = 1.00E-11
Integral type ranges set in mkLRange.C for JobNum: 11  <1-6|7-7>
Finding J and K together
 ML is being used
 Job number = 122, Threshold = 1.00E-11
Integral type ranges set in mkLRange.C for JobNum: 22  <1-6|1-6>
Total number of integrals generated =           70467
 MakeJK  time:  CPU       0.45 s  wall       0.49 s
 Gradient of SCF Energy
            1           2           3           4           5           6
    1   0.0231121  -0.0608690   0.0011325  -0.0000851   0.0611521  -0.0234062
    2  -0.0219202   0.0203567   0.0033436  -0.0027755  -0.0204950   0.0220603
    3  -0.0056305  -0.0189998   0.0037265  -0.0026163   0.0191672   0.0054850
            7           8           9          10
    1  -0.0011366   0.0001359   0.0021151  -0.0021508
    2  -0.0033469   0.0028153   0.0024748  -0.0025129
    3  -0.0037145   0.0025704   0.0035714  -0.0035596
 Max gradient component =       6.115E-02
 RMS gradient           =       1.936E-02
drvman.C: 248: out of SCF_Grad for normal SCF gradient
 Gradient time:  CPU 0.47 s  wall 0.51 s
 ------------------------------------------------------------------------------
                     drvman        : Timing summary (seconds)
 ------------------------------------------------------------------------------
     job step          cpu (% of tot)      sys (% of tot)     wall (% of tot)
 ------------------------------------------------------------------------------
 ------------------------------------------------------------------------------
   Grand Totals     0.4680E+00          0.1000E-05          0.5063E+00
 ------------------------------------------------------------------------------
drvman_main.C: 77: out of DrvMan =======================================================
            AB INITIO MOLECULAR DYNAMICS
=======================================================
Created directory /home/jcartus/scratch/Butadien_13.mol.dir/AIMD
AIMD will take 400 BOMD steps Velocity Verlet integration
Time step = 20.00000 a.u. ( = 0.48378 fs)
Total simulation time requested = 193.511 fs
Integral threshold = 10**(-11)
SCF convergence threshold = 10**(-8)
Generating viewable xyz trajectory,
 file (in Angstroms) at AIMD/View.xyz
Choosing nuclear velocities from Maxwell-Boltzmann
Velocities sampled from Maxwell-Boltzmann at T = 400.0 K
sqrt(kT/m) and (vx,vy,vz) for each atom:
  1   2.4064e-04   1.33e-04  -1.51e-04   3.53e-04 
  2   2.4064e-04   1.84e-04  -1.81e-05   3.77e-04 
  3   8.3036e-04  -2.63e-04  -4.51e-04   2.67e-04 
  4   8.3036e-04  -2.15e-04   1.21e-03  -1.19e-04 
  5   2.4064e-04   1.58e-04   8.99e-05  -3.86e-04 
  6   2.4064e-04   4.35e-05  -7.14e-04  -8.78e-05 
  7   8.3036e-04   7.05e-04   2.75e-04  -9.92e-04 
  8   8.3036e-04   8.92e-04  -1.52e-04  -2.77e-04 
  9   8.3036e-04  -6.04e-04   4.06e-04  -1.16e-03 
 10   8.3036e-04  -8.39e-04   6.67e-04   1.28e-03 
T(nuclear) = 0.01966753 a.u.
v(c.o.m.) = (  1.0906e-04,  -1.3958e-04,   3.8165e-05)
T(c.o.m.) = 1.61740e-03 a.u.
kT/2 = 0.000633 a.u.
Tx   = 0.003133 a.u.
Ty   = 0.008094 a.u.
Tz   = 0.008441 a.u.
Mean velocities (a.u.):   1.9339e-05   1.1611e-04  -7.4343e-05
Removing c.o.m. velocity
T(nuclear) = 0.02683160 a.u.
v(c.o.m.) = (  0.0000e+00,  -3.1553e-20,   1.8030e-20)
T(c.o.m.) = 6.50567e-35 a.u.
kT   = 0.001267 a.u. = 0.79 kcal/mol
Tx   = 0.004916 a.u. = 3.08 kcal/mol
Ty   = 0.012952 a.u. = 8.13 kcal/mol
Tz   = 0.008964 a.u. = 5.63 kcal/mol
Initial velocities in m/s
  1      1.8270e+02     -1.9182e+02      7.3389e+02 
  2      2.9561e+02      9.7959e+01      7.8789e+02 
  3     -1.8555e+03      6.5138e+02      1.3715e+02 
  4     -1.7504e+03      4.2804e+03     -7.0729e+02 
  5      2.3840e+02      3.3416e+02     -8.8282e+02 
  6     -1.2248e+01     -1.4245e+03     -2.2973e+02 
  7      2.6246e+02      2.2400e+03     -2.6183e+03 
  8      6.7150e+02      1.3060e+03     -1.0546e+03 
  9     -2.6004e+03      2.5251e+03     -2.9895e+03 
 10     -3.1156e+03      3.0971e+03      2.3600e+03 
----------------------------------------------------------------------------
       Nuclear coordinates (Angst) and velocities (a.u.)
----------------------------------------------------------------------------
             x        y        z            v_x         v_y        v_z
----------------------------------------------------------------------------
1      C    5.4043  -0.8891  -0.3364     8.3511e-05  -8.7680e-05   3.3546e-04
2      C    4.3119  -0.1175  -0.3082     1.3513e-04   4.4777e-05   3.6015e-04
3      H    6.2296  -0.6995   0.3427    -8.4814e-04   2.9775e-04   6.2691e-05
4      H    5.5081  -1.7201  -1.0268    -8.0009e-04   1.9566e-03  -3.2330e-04
5      C    3.1858  -0.3211  -1.1852     1.0897e-04   1.5275e-04  -4.0354e-04
6      C    2.0946   0.4527  -1.1605    -5.5984e-06  -6.5115e-04  -1.0501e-04
7      H    1.2697   0.2625  -1.8400     1.1997e-04   1.0239e-03  -1.1968e-03
8      H    1.9922   1.2866  -0.4735     3.0694e-04   5.9697e-04  -4.8206e-04
9      H    4.2614   0.7029   0.4047    -1.1886e-03   1.1542e-03  -1.3665e-03
10     H    3.2349  -1.1438  -1.8956    -1.4241e-03   1.4157e-03   1.0787e-03
----------------------------------------------------------------------------
Write nuclear velocities every 1 time steps

TIME STEP #1 (t = 0.000 a.u. = 0.00000 fs)
--------------------------------------
 Instantaneous Temperature = 564.8 K
 ----------------------------------------------------------------
             Standard Nuclear Orientation (Angstroms)
    I     Atom           X                Y                Z
 ----------------------------------------------------------------
    1      C       5.4050820206    -0.8899319067    -0.3328623735
    2      C       4.3136246067    -0.1171245865    -0.3043364310
    3      H       6.2205584796    -0.6965113823     0.3431588133
    4      H       5.4996270894    -1.6992424790    -1.0300309880
    5      C       3.1866274337    -0.3194242551    -1.1895236318
    6      C       2.0946839948     0.4457218429    -1.1616779369
    7      H       1.2710351764     0.2735696542    -1.8524125165
    8      H       1.9954707168     1.2927458743    -0.4787299664
    9      H       4.2487481994     0.7149832337     0.3899917234
   10      H       3.2199914014    -1.1287121429    -1.8839280283
 ----------------------------------------------------------------
 Nuclear Repulsion Energy =   104.2967963655 hartrees
 There are       15 alpha and       15 beta electrons

                       Distance Matrix (Angstroms)
             C (  1)   C (  2)   H (  3)   H (  4)   C (  5)   C (  6)
   C (  2)  1.337656
   H (  3)  1.076763  2.095551
   H (  4)  1.072365  2.106260  1.846852
   C (  5)  2.445585  1.447275  3.419949  2.698018
   C (  6)  3.664647  2.444489  4.537849  4.026393  1.333628
   H (  7)  4.555558  3.436063  5.500852  4.738068  2.112003  1.088645
   H (  8)  4.051026  2.718821  4.741731  4.640586  2.126776  1.092571
   H (  9)  2.106034  1.085681  2.425396  3.067515  2.166326  2.668365
   H ( 10)  2.690249  2.171279  3.761664  2.500277  1.066892  2.065624
             H (  7)   H (  8)   H (  9)
   H (  8)  1.857560
   H (  9)  3.753665  2.483092
   H ( 10)  2.401212  3.055731  3.102944

 Applying Cartesian multipole field
    Component          Value
    ---------          -----
     (2,0,0)        1.00000E-12
     (0,2,0)        2.00000E-11
     (0,0,2)       -3.00000E-11
 Nucleus-field energy     =    -0.0000000002 hartrees
 ENuRep (before)= 104.2967963655
 ENucField = -0.0000000002
 ENuRep (after) = 104.2967963653
 Job number = 2, Threshold = 1.00E-11
Integral type ranges set in mkLRange.C for JobNum: 2  <1-6|1-6>
Symmetry turned off temporarily
Symmetry turned back on
 Job number = 11, Threshold = 1.00E-11
Integral type ranges set in mkLRange.C for JobNum: 11  <1-6|7-7>
 Smallest overlap matrix eigenvalue = 1.82E-01
 Multipole matrices computed through 2nd order
 Guess from superposition of atomic densities
 Warning:  Energy on first SCF cycle will be non-variational
 SAD guess density has 30.000000 electrons
 SCF convergence criterion is 10**(-8)
 A restricted Hartree-Fock SCF calculation will be
 performed using Pulay DIIS extrapolation
 SCF converges when DIIS error is below 1.0E-08
Finding J and K together
 Job number = 22, Threshold = 1.00E-11
Integral type ranges set in mkLRange.C for JobNum: 22  <1-6|1-6>
 MakeJK  time:  CPU       0.15 s  wall       0.16 s
Fock build time:  0.15 s (CPU) 0.16 s (wall)
DIIS Errors:  Max 1.10E+00 RMS 2.16E-01

Current DIIS subspace size = 1
REM_GRID_RESTART_DIIS = 0

 ---------------------------------------
  Cycle       Energy         DIIS Error
 ---------------------------------------
    1    -152.6760419241      2.16E-01  00000
Finding J and K together
 Job number = 22, Threshold = 1.00E-11
Integral type ranges set in mkLRange.C for JobNum: 22  <1-6|1-6>
 MakeJK  time:  CPU       0.20 s  wall       0.20 s
Fock build time:  0.20 s (CPU) 0.20 s (wall)
DIIS Errors:  Max 5.84E-02 RMS 1.29E-02

Current DIIS subspace size = 2
REM_GRID_RESTART_DIIS = 0

    2    -152.9906646603      1.29E-02  00000
Finding J and K together
 Job number = 22, Threshold = 1.00E-11
Integral type ranges set in mkLRange.C for JobNum: 22  <1-6|1-6>
 MakeJK  time:  CPU       0.16 s  wall       0.16 s
Fock build time:  0.16 s (CPU) 0.16 s (wall)
DIIS Errors:  Max 1.82E-02 RMS 3.46E-03

Current DIIS subspace size = 3
REM_GRID_RESTART_DIIS = 0

    3    -153.0146304980      3.46E-03  00000
Finding J and K together
 Job number = 22, Threshold = 1.00E-11
Integral type ranges set in mkLRange.C for JobNum: 22  <1-6|1-6>
 MakeJK  time:  CPU       0.13 s  wall       0.13 s
Fock build time:  0.14 s (CPU) 0.13 s (wall)
DIIS Errors:  Max 6.24E-03 RMS 1.22E-03

Current DIIS subspace size = 4
REM_GRID_RESTART_DIIS = 0

    4    -153.0163959821      1.22E-03  00000
Finding J and K together
 Job number = 22, Threshold = 1.00E-11
Integral type ranges set in mkLRange.C for JobNum: 22  <1-6|1-6>
 MakeJK  time:  CPU       0.20 s  wall       0.20 s
Fock build time:  0.20 s (CPU) 0.20 s (wall)
DIIS Errors:  Max 4.83E-04 RMS 9.47E-05

Current DIIS subspace size = 5
REM_GRID_RESTART_DIIS = 0

    5    -153.0165512581      9.47E-05  00000
Finding J and K together
 Job number = 22, Threshold = 1.00E-11
Integral type ranges set in mkLRange.C for JobNum: 22  <1-6|1-6>
 MakeJK  time:  CPU       0.20 s  wall       0.20 s
Fock build time:  0.20 s (CPU) 0.20 s (wall)
DIIS Errors:  Max 6.89E-05 RMS 1.26E-05

Current DIIS subspace size = 6
REM_GRID_RESTART_DIIS = 0

    6    -153.0165543289      1.26E-05  00000
Finding J and K together
 Job number = 22, Threshold = 1.00E-11
Integral type ranges set in mkLRange.C for JobNum: 22  <1-6|1-6>
 MakeJK  time:  CPU       0.19 s  wall       0.19 s
Fock build time:  0.19 s (CPU) 0.19 s (wall)
DIIS Errors:  Max 7.60E-06 RMS 1.94E-06

Current DIIS subspace size = 7
REM_GRID_RESTART_DIIS = 0

    7    -153.0165543834      1.94E-06  00000
Finding J and K together
 Job number = 22, Threshold = 1.00E-11
Integral type ranges set in mkLRange.C for JobNum: 22  <1-6|1-6>
 MakeJK  time:  CPU       0.19 s  wall       0.19 s
Fock build time:  0.19 s (CPU) 0.19 s (wall)
DIIS Errors:  Max 4.90E-06 RMS 1.03E-06

Current DIIS subspace size = 8
REM_GRID_RESTART_DIIS = 0

    8    -153.0165543842      1.03E-06  00000
Finding J and K together
 Job number = 22, Threshold = 1.00E-11
Integral type ranges set in mkLRange.C for JobNum: 22  <1-6|1-6>
 MakeJK  time:  CPU       0.20 s  wall       0.19 s
Fock build time:  0.20 s (CPU) 0.20 s (wall)
DIIS Errors:  Max 1.62E-06 RMS 2.79E-07

Current DIIS subspace size = 9
REM_GRID_RESTART_DIIS = 0

    9    -153.0165543843      2.79E-07  00000
Finding J and K together
 Job number = 22, Threshold = 1.00E-11
Integral type ranges set in mkLRange.C for JobNum: 22  <1-6|1-6>
 MakeJK  time:  CPU       0.19 s  wall       0.20 s
Fock build time:  0.19 s (CPU) 0.20 s (wall)
DIIS Errors:  Max 4.39E-07 RMS 8.20E-08

Current DIIS subspace size = 10
REM_GRID_RESTART_DIIS = 0

   10    -153.0165543843      8.20E-08  00000
Finding J and K together
 Job number = 22, Threshold = 1.00E-11
Integral type ranges set in mkLRange.C for JobNum: 22  <1-6|1-6>
 MakeJK  time:  CPU       0.20 s  wall       0.19 s
Fock build time:  0.20 s (CPU) 0.19 s (wall)
DIIS Errors:  Max 2.17E-08 RMS 5.27E-09

Current DIIS subspace size = 11
REM_GRID_RESTART_DIIS = 0

   11    -153.0165543843      5.27E-09  00000 Convergence criterion met
 ---------------------------------------
 SCF time:  CPU 2.01 s  wall 2.04 s
 SCF   energy in the final basis set = -153.01655438
 Total energy in the final basis set = -153.01655438
drvman_main.C: 73: calling DrvMan  Calculating analytic gradient of the SCF energy
drvman.C : 218: Calculating analytic gradient of the SCF energy
drvman.C: 244: calling SCF_Grad for normal SCF gradient
 Job number = 111, Threshold = 1.00E-11
Integral type ranges set in mkLRange.C for JobNum: 11  <1-6|7-7>
 Warning:  Cost of integrals step H3 set to -1071757994
 Warning:  Retrieved cost of -1071757994 for integrals step H3
 Warning:  Retrieved cost of -1071757994 for integrals step H3
 Warning:  Retrieved cost of -1071757994 for integrals step H3
Finding J and K together
 ML is being used
 Job number = 122, Threshold = 1.00E-11
Integral type ranges set in mkLRange.C for JobNum: 22  <1-6|1-6>
 MakeJK  time:  CPU       0.50 s  wall       0.56 s
 Gradient of SCF Energy
            1           2           3           4           5           6
    1   0.0322585  -0.0547158  -0.0056880  -0.0025198   0.0568322  -0.0176513
    2  -0.0327002   0.0210915   0.0033189   0.0073416  -0.0297323   0.0091604
    3  -0.0082879  -0.0119665  -0.0004548   0.0034160   0.0041773   0.0036992
            7           8           9          10
    1  -0.0032573  -0.0001806   0.0002343  -0.0053123
    2  -0.0018069   0.0081617   0.0023745   0.0127910
    3  -0.0059487   0.0057752   0.0002275   0.0093628
 Max gradient component =       5.683E-02
 RMS gradient           =       1.902E-02
drvman.C: 248: out of SCF_Grad for normal SCF gradient
 Gradient time:  CPU 0.52 s  wall 0.59 s
 ------------------------------------------------------------------------------
                     drvman        : Timing summary (seconds)
 ------------------------------------------------------------------------------
     job step          cpu (% of tot)      sys (% of tot)     wall (% of tot)
 ------------------------------------------------------------------------------
 ------------------------------------------------------------------------------
   Grand Totals     0.5240E+00          0.0000E+00          0.5899E+00
 ------------------------------------------------------------------------------
drvman_main.C: 77: out of DrvMan  Time for this dynamics step: 2.6 s (CPU) 2.7 s (wall)

TIME STEP #2 (t = 20.000 a.u. = 0.48378 fs)
--------------------------------------
 Instantaneous Temperature = 565.4 K
 ----------------------------------------------------------------
             Standard Nuclear Orientation (Angstroms)
    I     Atom           X                Y                Z
 ----------------------------------------------------------------
    1      C       5.4055418905    -0.8904373884    -0.3292045486
    2      C       4.3158786729    -0.1169532653    -0.3003170672
    3      H       6.2121723042    -0.6939351536     0.3436600277
    4      H       5.4914544965    -1.6792208281    -1.0336955591
    5      C       3.1869349290    -0.3174208046    -1.1939276852
    6      C       2.0949087928     0.4386350451    -1.1628516688
    7      H       1.2727456461     0.2848074964    -1.8641796506
    8      H       1.9987322426     1.2979613925    -0.4846453291
    9      H       4.2360193983     0.7267828907     0.3752972371
   10      H       3.2056548692    -1.1150580186    -1.8733848003
 ----------------------------------------------------------------
 Nuclear Repulsion Energy =   104.4376596907 hartrees
 There are       15 alpha and       15 beta electrons

                       Distance Matrix (Angstroms)
             C (  1)   C (  2)   H (  3)   H (  4)   C (  5)   C (  6)
   C (  2)  1.336592
   H (  3)  1.068650  2.084117
   H (  4)  1.061069  2.088182  1.840470
   C (  5)  2.449145  1.453699  3.414381  2.681601
   C (  6)  3.663563  2.446498  4.528151  4.004812  1.328573
   H (  7)  4.562604  3.444958  5.498221  4.727009  2.115665  1.091548
   H (  8)  4.052111  2.721236  4.733584  4.622140  2.127056  1.098934
   H (  9)  2.116485  1.083846  2.434054  3.057815  2.157176  2.652034
   H ( 10)  2.697119  2.168721  3.759226  2.499648  1.047968  2.037787
             H (  7)   H (  8)   H (  9)
   H (  8)  1.859207
   H (  9)  3.740533  2.463981
   H ( 10)  2.386597  3.034456  3.083926

 Applying Cartesian multipole field
    Component          Value
    ---------          -----
     (2,0,0)        1.00000E-12
     (0,2,0)        2.00000E-11
     (0,0,2)       -3.00000E-11
 Nucleus-field energy     =    -0.0000000002 hartrees
 ENuRep (before)= 104.4376596907
 ENucField = -0.0000000002
 ENuRep (after) = 104.4376596905
 Job number = 2, Threshold = 1.00E-11
Integral type ranges set in mkLRange.C for JobNum: 2  <1-6|1-6>
Symmetry turned off temporarily
Symmetry turned back on
 Job number = 11, Threshold = 1.00E-11
Integral type ranges set in mkLRange.C for JobNum: 11  <1-6|7-7>
 Smallest overlap matrix eigenvalue = 1.81E-01
 Multipole matrices computed through 2nd order
 Guess from superposition of atomic densities
 Warning:  Energy on first SCF cycle will be non-variational
 SAD guess density has 30.000000 electrons
 SCF convergence criterion is 10**(-8)
 A restricted Hartree-Fock SCF calculation will be
 performed using Pulay DIIS extrapolation
 SCF converges when DIIS error is below 1.0E-08
Finding J and K together
 Job number = 22, Threshold = 1.00E-11
Integral type ranges set in mkLRange.C for JobNum: 22  <1-6|1-6>
 MakeJK  time:  CPU       0.15 s  wall       0.16 s
Fock build time:  0.15 s (CPU) 0.16 s (wall)
DIIS Errors:  Max 1.12E+00 RMS 2.18E-01

Current DIIS subspace size = 1
REM_GRID_RESTART_DIIS = 0

 ---------------------------------------
  Cycle       Energy         DIIS Error
 ---------------------------------------
    1    -152.7053883203      2.18E-01  00000
Finding J and K together
 Job number = 22, Threshold = 1.00E-11
Integral type ranges set in mkLRange.C for JobNum: 22  <1-6|1-6>
 MakeJK  time:  CPU       0.20 s  wall       0.20 s
Fock build time:  0.20 s (CPU) 0.20 s (wall)
DIIS Errors:  Max 5.82E-02 RMS 1.29E-02

Current DIIS subspace size = 2
REM_GRID_RESTART_DIIS = 0

    2    -152.9893331747      1.29E-02  00000
Finding J and K together
 Job number = 22, Threshold = 1.00E-11
Integral type ranges set in mkLRange.C for JobNum: 22  <1-6|1-6>
 MakeJK  time:  CPU       0.18 s  wall       0.18 s
Fock build time:  0.18 s (CPU) 0.18 s (wall)
DIIS Errors:  Max 1.83E-02 RMS 3.43E-03

Current DIIS subspace size = 3
REM_GRID_RESTART_DIIS = 0

    3    -153.0131658375      3.43E-03  00000
Finding J and K together
 Job number = 22, Threshold = 1.00E-11
Integral type ranges set in mkLRange.C for JobNum: 22  <1-6|1-6>
 MakeJK  time:  CPU       0.18 s  wall       0.19 s
Fock build time:  0.18 s (CPU) 0.19 s (wall)
DIIS Errors:  Max 6.22E-03 RMS 1.17E-03

Current DIIS subspace size = 4
REM_GRID_RESTART_DIIS = 0

    4    -153.0149096890      1.17E-03  00000
Finding J and K together
 Job number = 22, Threshold = 1.00E-11
Integral type ranges set in mkLRange.C for JobNum: 22  <1-6|1-6>
 MakeJK  time:  CPU       0.19 s  wall       0.19 s
Fock build time:  0.19 s (CPU) 0.19 s (wall)
DIIS Errors:  Max 4.81E-04 RMS 9.36E-05

Current DIIS subspace size = 5
REM_GRID_RESTART_DIIS = 0

    5    -153.0150514969      9.36E-05  00000
Finding J and K together
 Job number = 22, Threshold = 1.00E-11
Integral type ranges set in mkLRange.C for JobNum: 22  <1-6|1-6>
 MakeJK  time:  CPU       0.19 s  wall       0.19 s
Fock build time:  0.19 s (CPU) 0.19 s (wall)
DIIS Errors:  Max 6.61E-05 RMS 1.33E-05

Current DIIS subspace size = 6
REM_GRID_RESTART_DIIS = 0

    6    -153.0150544349      1.33E-05  00000
Finding J and K together
 Job number = 22, Threshold = 1.00E-11
Integral type ranges set in mkLRange.C for JobNum: 22  <1-6|1-6>
 MakeJK  time:  CPU       0.19 s  wall       0.19 s
Fock build time:  0.19 s (CPU) 0.19 s (wall)
DIIS Errors:  Max 1.34E-05 RMS 2.81E-06

Current DIIS subspace size = 7
REM_GRID_RESTART_DIIS = 0

    7    -153.0150544886      2.81E-06  00000
Finding J and K together
 Job number = 22, Threshold = 1.00E-11
Integral type ranges set in mkLRange.C for JobNum: 22  <1-6|1-6>
 MakeJK  time:  CPU       0.20 s  wall       0.20 s
Fock build time:  0.20 s (CPU) 0.20 s (wall)
DIIS Errors:  Max 7.72E-06 RMS 1.54E-06

Current DIIS subspace size = 8
REM_GRID_RESTART_DIIS = 0

    8    -153.0150544904      1.54E-06  00000
Finding J and K together
 Job number = 22, Threshold = 1.00E-11
Integral type ranges set in mkLRange.C for JobNum: 22  <1-6|1-6>
 MakeJK  time:  CPU       0.19 s  wall       0.19 s
Fock build time:  0.19 s (CPU) 0.19 s (wall)
DIIS Errors:  Max 2.57E-06 RMS 4.71E-07

Current DIIS subspace size = 9
REM_GRID_RESTART_DIIS = 0

    9    -153.0150544907      4.71E-07  00000
Finding J and K together
 Job number = 22, Threshold = 1.00E-11
Integral type ranges set in mkLRange.C for JobNum: 22  <1-6|1-6>
 MakeJK  time:  CPU       0.20 s  wall       0.22 s
Fock build time:  0.20 s (CPU) 0.22 s (wall)
DIIS Errors:  Max 3.30E-07 RMS 6.56E-08

Current DIIS subspace size = 10
REM_GRID_RESTART_DIIS = 0

   10    -153.0150544907      6.56E-08  00000
Finding J and K together
 Job number = 22, Threshold = 1.00E-11
Integral type ranges set in mkLRange.C for JobNum: 22  <1-6|1-6>
 MakeJK  time:  CPU       0.20 s  wall       0.21 s
Fock build time:  0.20 s (CPU) 0.21 s (wall)
DIIS Errors:  Max 2.53E-08 RMS 5.84E-09

Current DIIS subspace size = 11
REM_GRID_RESTART_DIIS = 0

   11    -153.0150544907      5.84E-09  00000 Convergence criterion met
 ---------------------------------------
 SCF time:  CPU 2.08 s  wall 2.15 s
 SCF   energy in the final basis set = -153.01505449
 Total energy in the final basis set = -153.01505449
drvman_main.C: 73: calling DrvMan  Calculating analytic gradient of the SCF energy
drvman.C : 218: Calculating analytic gradient of the SCF energy
drvman.C: 244: calling SCF_Grad for normal SCF gradient
 Job number = 111, Threshold = 1.00E-11
Integral type ranges set in mkLRange.C for JobNum: 11  <1-6|7-7>
Finding J and K together
 ML is being used
 Job number = 122, Threshold = 1.00E-11
Integral type ranges set in mkLRange.C for JobNum: 22  <1-6|1-6>
 MakeJK  time:  CPU       0.45 s  wall       0.48 s
 Gradient of SCF Energy
            1           2           3           4           5           6
    1   0.0397549  -0.0469054  -0.0122531  -0.0046861   0.0504018  -0.0111200
    2  -0.0416904   0.0206791   0.0031930   0.0166271  -0.0380278  -0.0039683
    3  -0.0107200  -0.0049616  -0.0045502   0.0092480  -0.0108534   0.0024228
            7           8           9          10
    1  -0.0051260  -0.0004203  -0.0016911  -0.0079546
    2  -0.0000772   0.0127973   0.0024688   0.0279984
    3  -0.0079948   0.0082113  -0.0029200   0.0221177
 Max gradient component =       5.040E-02
 RMS gradient           =       2.047E-02
drvman.C: 248: out of SCF_Grad for normal SCF gradient
 Gradient time:  CPU 0.47 s  wall 0.51 s
 ------------------------------------------------------------------------------
                     drvman        : Timing summary (seconds)
 ------------------------------------------------------------------------------
     job step          cpu (% of tot)      sys (% of tot)     wall (% of tot)
 ------------------------------------------------------------------------------
 ------------------------------------------------------------------------------
   Grand Totals     0.4720E+00          0.2000E-05          0.5116E+00
 ------------------------------------------------------------------------------
drvman_main.C: 77: out of DrvMan  Time for this dynamics step: 2.6 s (CPU) 2.7 s (wall)

TIME STEP #3 (t = 40.000 a.u. = 0.96755 fs)
--------------------------------------
 Instantaneous Temperature = 534.7 K
 ----------------------------------------------------------------
             Standard Nuclear Orientation (Angstroms)
    I     Atom           X                Y                Z
 ----------------------------------------------------------------
    1      C       5.4056170711    -0.8905394513    -0.3254429916
    2      C       4.3185866205    -0.1169820461    -0.2962496926
    3      H       6.2051978891    -0.6917268148     0.3446855016
    4      H       5.4838218187    -1.6611148843    -1.0384256534
    5      C       3.1867547097    -0.3150493773    -1.1982267158
    6      C       2.0952411942     0.4315866466    -1.1640488454
    7      H       1.2750467112     0.2960542359    -1.8750256573
    8      H       2.0020421924     1.3017024491    -0.4915067683
    9      H       4.2234854438     0.7382981013     0.3609391813
   10      H       3.1922348366    -1.1046297634    -1.8653898910
 ----------------------------------------------------------------
 Nuclear Repulsion Energy =   104.5645506892 hartrees
 There are       15 alpha and       15 beta electrons

                       Distance Matrix (Angstroms)
             C (  1)   C (  2)   H (  3)   H (  4)   C (  5)   C (  6)
   C (  2)  1.334496
   H (  3)  1.062040  2.073748
   H (  4)  1.052733  2.071942  1.836598
   C (  5)  2.452813  1.460766  3.410786  2.667198
   C (  6)  3.661948  2.448932  4.519940  3.984678  1.322889
   H (  7)  4.568460  3.453443  5.496291  4.716376  2.118049  1.093881
   H (  8)  4.051891  2.723448  4.726468  4.604367  2.125296  1.103676
   H (  9)  2.126421  1.082795  2.443853  3.050222  2.148337  2.636112
   H ( 10)  2.704872  2.169405  3.759371  2.498983  1.033718  2.013761
             H (  7)   H (  8)   H (  9)
   H (  8)  1.858487
   H (  9)  3.726716  2.445179
   H ( 10)  2.374367  3.015717  3.068616

 Applying Cartesian multipole field
    Component          Value
    ---------          -----
     (2,0,0)        1.00000E-12
     (0,2,0)        2.00000E-11
     (0,0,2)       -3.00000E-11
 Nucleus-field energy     =    -0.0000000002 hartrees
 ENuRep (before)= 104.5645506892
 ENucField = -0.0000000002
 ENuRep (after) = 104.5645506890
 Job number = 2, Threshold = 1.00E-11
Integral type ranges set in mkLRange.C for JobNum: 2  <1-6|1-6>
Symmetry turned off temporarily
Symmetry turned back on
 Job number = 11, Threshold = 1.00E-11
Integral type ranges set in mkLRange.C for JobNum: 11  <1-6|7-7>
 Smallest overlap matrix eigenvalue = 1.79E-01
 Multipole matrices computed through 2nd order
 Guess from superposition of atomic densities
 Warning:  Energy on first SCF cycle will be non-variational
 SAD guess density has 30.000000 electrons
 SCF convergence criterion is 10**(-8)
 A restricted Hartree-Fock SCF calculation will be
 performed using Pulay DIIS extrapolation
 SCF converges when DIIS error is below 1.0E-08
Finding J and K together
 Job number = 22, Threshold = 1.00E-11
Integral type ranges set in mkLRange.C for JobNum: 22  <1-6|1-6>
 MakeJK  time:  CPU       0.12 s  wall       0.13 s
Fock build time:  0.12 s (CPU) 0.13 s (wall)
DIIS Errors:  Max 1.13E+00 RMS 2.19E-01

Current DIIS subspace size = 1
REM_GRID_RESTART_DIIS = 0

 ---------------------------------------
  Cycle       Energy         DIIS Error
 ---------------------------------------
    1    -152.7313729723      2.19E-01  00000
Finding J and K together
 Job number = 22, Threshold = 1.00E-11
Integral type ranges set in mkLRange.C for JobNum: 22  <1-6|1-6>
 MakeJK  time:  CPU       0.16 s  wall       0.16 s
Fock build time:  0.16 s (CPU) 0.16 s (wall)
DIIS Errors:  Max 5.83E-02 RMS 1.29E-02

Current DIIS subspace size = 2
REM_GRID_RESTART_DIIS = 0

    2    -152.9871014826      1.29E-02  00000
Finding J and K together
 Job number = 22, Threshold = 1.00E-11
Integral type ranges set in mkLRange.C for JobNum: 22  <1-6|1-6>
 MakeJK  time:  CPU       0.18 s  wall       0.18 s
Fock build time:  0.18 s (CPU) 0.18 s (wall)
DIIS Errors:  Max 1.84E-02 RMS 3.41E-03

Current DIIS subspace size = 3
REM_GRID_RESTART_DIIS = 0

    3    -153.0108384147      3.41E-03  00000
Finding J and K together
 Job number = 22, Threshold = 1.00E-11
Integral type ranges set in mkLRange.C for JobNum: 22  <1-6|1-6>
 MakeJK  time:  CPU       0.18 s  wall       0.18 s
Fock build time:  0.18 s (CPU) 0.18 s (wall)
DIIS Errors:  Max 6.12E-03 RMS 1.12E-03

Current DIIS subspace size = 4
REM_GRID_RESTART_DIIS = 0

    4    -153.0125639758      1.12E-03  00000
Finding J and K together
 Job number = 22, Threshold = 1.00E-11
Integral type ranges set in mkLRange.C for JobNum: 22  <1-6|1-6>
 MakeJK  time:  CPU       0.18 s  wall       0.18 s
Fock build time:  0.18 s (CPU) 0.18 s (wall)
DIIS Errors:  Max 4.75E-04 RMS 9.25E-05

Current DIIS subspace size = 5
REM_GRID_RESTART_DIIS = 0

    5    -153.0126946646      9.25E-05  00000
Finding J and K together
 Job number = 22, Threshold = 1.00E-11
Integral type ranges set in mkLRange.C for JobNum: 22  <1-6|1-6>
 MakeJK  time:  CPU       0.18 s  wall       0.18 s
Fock build time:  0.18 s (CPU) 0.18 s (wall)
DIIS Errors:  Max 6.40E-05 RMS 1.42E-05

Current DIIS subspace size = 6
REM_GRID_RESTART_DIIS = 0

    6    -153.0126974540      1.42E-05  00000
Finding J and K together
 Job number = 22, Threshold = 1.00E-11
Integral type ranges set in mkLRange.C for JobNum: 22  <1-6|1-6>
 MakeJK  time:  CPU       0.14 s  wall       0.14 s
Fock build time:  0.14 s (CPU) 0.14 s (wall)
DIIS Errors:  Max 1.70E-05 RMS 3.40E-06

Current DIIS subspace size = 7
REM_GRID_RESTART_DIIS = 0

    7    -153.0126975092      3.40E-06  00000
Finding J and K together
 Job number = 22, Threshold = 1.00E-11
Integral type ranges set in mkLRange.C for JobNum: 22  <1-6|1-6>
 MakeJK  time:  CPU       0.16 s  wall       0.16 s
Fock build time:  0.16 s (CPU) 0.16 s (wall)
DIIS Errors:  Max 9.84E-06 RMS 1.87E-06

Current DIIS subspace size = 8
REM_GRID_RESTART_DIIS = 0

    8    -153.0126975119      1.87E-06  00000
Finding J and K together
 Job number = 22, Threshold = 1.00E-11
Integral type ranges set in mkLRange.C for JobNum: 22  <1-6|1-6>
 MakeJK  time:  CPU       0.16 s  wall       0.16 s
Fock build time:  0.16 s (CPU) 0.16 s (wall)
DIIS Errors:  Max 2.97E-06 RMS 5.39E-07

Current DIIS subspace size = 9
REM_GRID_RESTART_DIIS = 0

    9    -153.0126975124      5.39E-07  00000
Finding J and K together
 Job number = 22, Threshold = 1.00E-11
Integral type ranges set in mkLRange.C for JobNum: 22  <1-6|1-6>
 MakeJK  time:  CPU       0.17 s  wall       0.17 s
Fock build time:  0.17 s (CPU) 0.17 s (wall)
DIIS Errors:  Max 2.37E-07 RMS 5.29E-08

Current DIIS subspace size = 10
REM_GRID_RESTART_DIIS = 0

   10    -153.0126975125      5.29E-08  00000
Finding J and K together
 Job number = 22, Threshold = 1.00E-11
Integral type ranges set in mkLRange.C for JobNum: 22  <1-6|1-6>
 MakeJK  time:  CPU       0.16 s  wall       0.16 s
Fock build time:  0.16 s (CPU) 0.16 s (wall)
DIIS Errors:  Max 3.69E-08 RMS 6.46E-09

Current DIIS subspace size = 11
REM_GRID_RESTART_DIIS = 0

   11    -153.0126975125      6.46E-09  00000 Convergence criterion met
 ---------------------------------------
 SCF time:  CPU 1.82 s  wall 1.84 s
 SCF   energy in the final basis set = -153.01269751
 Total energy in the final basis set = -153.01269751
drvman_main.C: 73: calling DrvMan  Calculating analytic gradient of the SCF energy
drvman.C : 218: Calculating analytic gradient of the SCF energy
drvman.C: 244: calling SCF_Grad for normal SCF gradient
 Job number = 111, Threshold = 1.00E-11
Integral type ranges set in mkLRange.C for JobNum: 11  <1-6|7-7>
Finding J and K together
 ML is being used
 Job number = 122, Threshold = 1.00E-11
Integral type ranges set in mkLRange.C for JobNum: 22  <1-6|1-6>
 MakeJK  time:  CPU       0.48 s  wall       0.48 s
 Gradient of SCF Energy
            1           2           3           4           5           6
    1   0.0446784  -0.0376138  -0.0178414  -0.0064561   0.0420951  -0.0040988
    2  -0.0477654   0.0188182   0.0031180   0.0238880  -0.0429161  -0.0167844
    3  -0.0123573   0.0016414  -0.0079876   0.0137671  -0.0236138   0.0017768
            7           8           9          10
    1  -0.0065499  -0.0005347  -0.0036503  -0.0100285
    2   0.0018249   0.0162998   0.0029449   0.0405721
    3  -0.0096872   0.0096063  -0.0056980   0.0325524
 Max gradient component =       4.777E-02
 RMS gradient           =       2.253E-02
drvman.C: 248: out of SCF_Grad for normal SCF gradient
 Gradient time:  CPU 0.50 s  wall 0.51 s
 ------------------------------------------------------------------------------
                     drvman        : Timing summary (seconds)
 ------------------------------------------------------------------------------
     job step          cpu (% of tot)      sys (% of tot)     wall (% of tot)
 ------------------------------------------------------------------------------
 ------------------------------------------------------------------------------
   Grand Totals     0.5040E+00          0.3000E-05          0.5055E+00
 ------------------------------------------------------------------------------
drvman_main.C: 77: out of DrvMan  Time for this dynamics step: 2.4 s (CPU) 2.4 s (wall)

TIME STEP #4 (t = 60.000 a.u. = 1.45133 fs)
--------------------------------------
 Instantaneous Temperature = 486.4 K
 ----------------------------------------------------------------
             Standard Nuclear Orientation (Angstroms)
    I     Atom           X                Y                Z
 ----------------------------------------------------------------
    1      C       5.4052599196    -0.8901793108    -0.3215618590
    2      C       4.3216585397    -0.1171929220    -0.2921982007
    3      H       6.2002790895    -0.6898777224     0.3466312740
    4      H       5.4769329921    -1.6457612251    -1.0447419443
    5      C       3.1861671560    -0.3122626710    -1.2022972463
    6      C       2.0956132577     0.4247006626    -1.1652632150
    7      H       1.2781024294     0.3070907154    -1.8847555445
    8      H       2.0054137490     1.3035655083    -0.4994750091
    9      H       4.2113720592     0.7494740138     0.3472376323
   10      H       3.1799702498    -1.0988760685    -1.8611455421
 ----------------------------------------------------------------
 Nuclear Repulsion Energy =   104.6631182817 hartrees
 There are       15 alpha and       15 beta electrons

                       Distance Matrix (Angstroms)
             C (  1)   C (  2)   H (  3)   H (  4)   C (  5)   C (  6)
   C (  2)  1.331376
   H (  3)  1.057666  2.065257
   H (  4)  1.048347  2.058519  1.836535
   C (  5)  2.456431  1.468221  3.409786  2.655306
   C (  6)  3.659850  2.451768  4.514022  3.966694  1.316736
   H (  7)  4.572796  3.461140  5.495531  4.706318  2.118976  1.095365
   H (  8)  4.050077  2.725162  4.720869  4.587733  2.121094  1.106261
   H (  9)  2.135679  1.082660  2.455094  3.045719  2.139951  2.620987
   H ( 10)  2.713998  2.174569  3.763486  2.498327  1.026099  1.995337
             H (  7)   H (  8)   H (  9)
   H (  8)  1.854979
   H (  9)  3.712353  2.426972
   H ( 10)  2.365249  3.000909  3.058945

 Applying Cartesian multipole field
    Component          Value
    ---------          -----
     (2,0,0)        1.00000E-12
     (0,2,0)        2.00000E-11
     (0,0,2)       -3.00000E-11
 Nucleus-field energy     =    -0.0000000002 hartrees
 ENuRep (before)= 104.6631182817
 ENucField = -0.0000000002
 ENuRep (after) = 104.6631182815
 Job number = 2, Threshold = 1.00E-11
Integral type ranges set in mkLRange.C for JobNum: 2  <1-6|1-6>
Symmetry turned off temporarily
Symmetry turned back on
 Job number = 11, Threshold = 1.00E-11
Integral type ranges set in mkLRange.C for JobNum: 11  <1-6|7-7>
 Smallest overlap matrix eigenvalue = 1.77E-01
 Multipole matrices computed through 2nd order
 Guess from superposition of atomic densities
 Warning:  Energy on first SCF cycle will be non-variational
 SAD guess density has 30.000000 electrons
 SCF convergence criterion is 10**(-8)
 A restricted Hartree-Fock SCF calculation will be
 performed using Pulay DIIS extrapolation
 SCF converges when DIIS error is below 1.0E-08
Finding J and K together
 Job number = 22, Threshold = 1.00E-11
Integral type ranges set in mkLRange.C for JobNum: 22  <1-6|1-6>
 MakeJK  time:  CPU       0.14 s  wall       0.15 s
Fock build time:  0.14 s (CPU) 0.15 s (wall)
DIIS Errors:  Max 1.14E+00 RMS 2.20E-01

Current DIIS subspace size = 1
REM_GRID_RESTART_DIIS = 0

 ---------------------------------------
  Cycle       Energy         DIIS Error
 ---------------------------------------
    1    -152.7510293189      2.20E-01  00000
Finding J and K together
 Job number = 22, Threshold = 1.00E-11
Integral type ranges set in mkLRange.C for JobNum: 22  <1-6|1-6>
 MakeJK  time:  CPU       0.18 s  wall       0.18 s
Fock build time:  0.18 s (CPU) 0.18 s (wall)
DIIS Errors:  Max 5.86E-02 RMS 1.29E-02

Current DIIS subspace size = 2
REM_GRID_RESTART_DIIS = 0

    2    -152.9849320569      1.29E-02  00000
Finding J and K together
 Job number = 22, Threshold = 1.00E-11
Integral type ranges set in mkLRange.C for JobNum: 22  <1-6|1-6>
 MakeJK  time:  CPU       0.14 s  wall       0.15 s
Fock build time:  0.14 s (CPU) 0.15 s (wall)
DIIS Errors:  Max 1.84E-02 RMS 3.39E-03

Current DIIS subspace size = 3
REM_GRID_RESTART_DIIS = 0

    3    -153.0086118561      3.39E-03  00000
Finding J and K together
 Job number = 22, Threshold = 1.00E-11
Integral type ranges set in mkLRange.C for JobNum: 22  <1-6|1-6>
 MakeJK  time:  CPU       0.15 s  wall       0.15 s
Fock build time:  0.15 s (CPU) 0.15 s (wall)
DIIS Errors:  Max 5.96E-03 RMS 1.08E-03

Current DIIS subspace size = 4
REM_GRID_RESTART_DIIS = 0

    4    -153.0103228982      1.08E-03  00000
Finding J and K together
 Job number = 22, Threshold = 1.00E-11
Integral type ranges set in mkLRange.C for JobNum: 22  <1-6|1-6>
 MakeJK  time:  CPU       0.15 s  wall       0.15 s
Fock build time:  0.15 s (CPU) 0.15 s (wall)
DIIS Errors:  Max 4.66E-04 RMS 9.12E-05

Current DIIS subspace size = 5
REM_GRID_RESTART_DIIS = 0

    5    -153.0104445392      9.12E-05  00000
Finding J and K together
 Job number = 22, Threshold = 1.00E-11
Integral type ranges set in mkLRange.C for JobNum: 22  <1-6|1-6>
 MakeJK  time:  CPU       0.17 s  wall       0.17 s
Fock build time:  0.17 s (CPU) 0.17 s (wall)
DIIS Errors:  Max 6.26E-05 RMS 1.46E-05

Current DIIS subspace size = 6
REM_GRID_RESTART_DIIS = 0

    6    -153.0104471587      1.46E-05  00000
Finding J and K together
 Job number = 22, Threshold = 1.00E-11
Integral type ranges set in mkLRange.C for JobNum: 22  <1-6|1-6>
 MakeJK  time:  CPU       0.15 s  wall       0.15 s
Fock build time:  0.15 s (CPU) 0.15 s (wall)
DIIS Errors:  Max 1.64E-05 RMS 3.54E-06

Current DIIS subspace size = 7
REM_GRID_RESTART_DIIS = 0

    7    -153.0104472160      3.54E-06  00000
Finding J and K together
 Job number = 22, Threshold = 1.00E-11
Integral type ranges set in mkLRange.C for JobNum: 22  <1-6|1-6>
 MakeJK  time:  CPU       0.17 s  wall       0.17 s
Fock build time:  0.17 s (CPU) 0.17 s (wall)
DIIS Errors:  Max 1.12E-05 RMS 2.03E-06

Current DIIS subspace size = 8
REM_GRID_RESTART_DIIS = 0

    8    -153.0104472191      2.03E-06  00000
Finding J and K together
 Job number = 22, Threshold = 1.00E-11
Integral type ranges set in mkLRange.C for JobNum: 22  <1-6|1-6>
 MakeJK  time:  CPU       0.15 s  wall       0.15 s
Fock build time:  0.15 s (CPU) 0.15 s (wall)
DIIS Errors:  Max 3.01E-06 RMS 5.44E-07

Current DIIS subspace size = 9
REM_GRID_RESTART_DIIS = 0

    9    -153.0104472197      5.44E-07  00000
Finding J and K together
 Job number = 22, Threshold = 1.00E-11
Integral type ranges set in mkLRange.C for JobNum: 22  <1-6|1-6>
 MakeJK  time:  CPU       0.16 s  wall       0.16 s
Fock build time:  0.16 s (CPU) 0.16 s (wall)
DIIS Errors:  Max 3.58E-07 RMS 8.27E-08

Current DIIS subspace size = 10
REM_GRID_RESTART_DIIS = 0

   10    -153.0104472198      8.27E-08  00000
Finding J and K together
 Job number = 22, Threshold = 1.00E-11
Integral type ranges set in mkLRange.C for JobNum: 22  <1-6|1-6>
 MakeJK  time:  CPU       0.17 s  wall       0.17 s
Fock build time:  0.17 s (CPU) 0.17 s (wall)
DIIS Errors:  Max 6.18E-08 RMS 1.04E-08

Current DIIS subspace size = 11
REM_GRID_RESTART_DIIS = 0

   11    -153.0104472198      1.04E-08  00000
Finding J and K together
 Job number = 22, Threshold = 1.00E-11
Integral type ranges set in mkLRange.C for JobNum: 22  <1-6|1-6>
 MakeJK  time:  CPU       0.15 s  wall       0.15 s
Fock build time:  0.15 s (CPU) 0.15 s (wall)
DIIS Errors:  Max 1.88E-08 RMS 3.25E-09

Current DIIS subspace size = 12
REM_GRID_RESTART_DIIS = 0

   12    -153.0104472198      3.25E-09  00000 Convergence criterion met
 ---------------------------------------
 SCF time:  CPU 1.92 s  wall 1.93 s
 SCF   energy in the final basis set = -153.01044722
 Total energy in the final basis set = -153.01044722
drvman_main.C: 73: calling DrvMan  Calculating analytic gradient of the SCF energy
drvman.C : 218: Calculating analytic gradient of the SCF energy
drvman.C: 244: calling SCF_Grad for normal SCF gradient
 Job number = 111, Threshold = 1.00E-11
Integral type ranges set in mkLRange.C for JobNum: 11  <1-6|7-7>
Finding J and K together
 ML is being used
 Job number = 122, Threshold = 1.00E-11
Integral type ranges set in mkLRange.C for JobNum: 22  <1-6|1-6>
 MakeJK  time:  CPU       0.41 s  wall       0.42 s
 Gradient of SCF Energy
            1           2           3           4           5           6
    1   0.0462577  -0.0270465  -0.0217738  -0.0077563   0.0323255   0.0031236
    2  -0.0500639   0.0153335   0.0032489   0.0281506  -0.0418852  -0.0287965
    3  -0.0126665   0.0075659  -0.0102209   0.0159153  -0.0318033   0.0017883
            7           8           9          10
    1  -0.0073705  -0.0004919  -0.0056335  -0.0116343
    2   0.0038554   0.0183709   0.0039165   0.0478699
    3  -0.0108788   0.0098073  -0.0080073   0.0385000
 Max gradient component =       5.006E-02
 RMS gradient           =       2.368E-02
drvman.C: 248: out of SCF_Grad for normal SCF gradient
 Gradient time:  CPU 0.43 s  wall 0.44 s
 ------------------------------------------------------------------------------
                     drvman        : Timing summary (seconds)
 ------------------------------------------------------------------------------
     job step          cpu (% of tot)      sys (% of tot)     wall (% of tot)
 ------------------------------------------------------------------------------
 ------------------------------------------------------------------------------
   Grand Totals     0.4320E+00          0.4000E-05          0.4392E+00
 ------------------------------------------------------------------------------
drvman_main.C: 77: out of DrvMan  Time for this dynamics step: 2.4 s (CPU) 2.4 s (wall)

TIME STEP #5 (t = 80.000 a.u. = 1.93511 fs)
--------------------------------------
 Instantaneous Temperature = 440.1 K
 ----------------------------------------------------------------
             Standard Nuclear Orientation (Angstroms)
    I     Atom           X                Y                Z
 ----------------------------------------------------------------
    1      C       5.4044551543    -0.8893347251    -0.3175581591
    2      C       4.3249921750    -0.1175521731    -0.2882199201
    3      H       6.1978689845    -0.6884029608     0.3497546627
    4      H       5.4709378145    -1.6336509767    -1.0528919343
    5      C       3.1852668036    -0.3090706610    -1.2060600312
    6      C       2.0959550959     0.4180933289    -1.1664948890
    7      H       1.2820073472     0.3176829953    -1.8932320162
    8      H       2.0088419806     1.3033119451    -0.5085732068
    9      H       4.1999077427     0.7601986837     0.3344586540
   10      H       3.1690461265    -1.0986377584    -1.8613370240
 ----------------------------------------------------------------
 Nuclear Repulsion Energy =   104.7238867342 hartrees
 There are       15 alpha and       15 beta electrons

                       Distance Matrix (Angstroms)
             C (  1)   C (  2)   H (  3)   H (  4)   C (  5)   C (  6)
   C (  2)  1.327309
   H (  3)  1.056023  2.059260
   H (  4)  1.048400  2.048529  1.841016
   C (  5)  2.459866  1.475833  3.411777  2.646179
   C (  6)  3.657353  2.454972  4.510991  3.951338  1.310318
   H (  7)  4.575392  3.467744  5.496262  4.696915  2.118354  1.095783
   H (  8)  4.046526  2.726163  4.717160  4.572542  2.114294  1.106373
   H (  9)  2.144066  1.083430  2.467900  3.044795  2.132142  2.607013
   H ( 10)  2.724723  2.184820  3.772398  2.497705  1.026191  1.983634
             H (  7)   H (  8)   H (  9)
   H (  8)  1.848522
   H (  9)  3.697644  2.409656
   H ( 10)  2.359639  2.990887  3.056054

 Applying Cartesian multipole field
    Component          Value
    ---------          -----
     (2,0,0)        1.00000E-12
     (0,2,0)        2.00000E-11
     (0,0,2)       -3.00000E-11
 Nucleus-field energy     =    -0.0000000002 hartrees
 ENuRep (before)= 104.7238867342
 ENucField = -0.0000000002
 ENuRep (after) = 104.7238867340
 Job number = 2, Threshold = 1.00E-11
Integral type ranges set in mkLRange.C for JobNum: 2  <1-6|1-6>
Symmetry turned off temporarily
Symmetry turned back on
 Job number = 11, Threshold = 1.00E-11
Integral type ranges set in mkLRange.C for JobNum: 11  <1-6|7-7>
 Smallest overlap matrix eigenvalue = 1.75E-01
 Multipole matrices computed through 2nd order
 Guess from superposition of atomic densities
 Warning:  Energy on first SCF cycle will be non-variational
 SAD guess density has 30.000000 electrons
 SCF convergence criterion is 10**(-8)
 A restricted Hartree-Fock SCF calculation will be
 performed using Pulay DIIS extrapolation
 SCF converges when DIIS error is below 1.0E-08
Finding J and K together
 Job number = 22, Threshold = 1.00E-11
Integral type ranges set in mkLRange.C for JobNum: 22  <1-6|1-6>
 MakeJK  time:  CPU       0.13 s  wall       0.15 s
Fock build time:  0.13 s (CPU) 0.15 s (wall)
DIIS Errors:  Max 1.16E+00 RMS 2.21E-01

Current DIIS subspace size = 1
REM_GRID_RESTART_DIIS = 0

 ---------------------------------------
  Cycle       Energy         DIIS Error
 ---------------------------------------
    1    -152.7625052255      2.21E-01  00000
Finding J and K together
 Job number = 22, Threshold = 1.00E-11
Integral type ranges set in mkLRange.C for JobNum: 22  <1-6|1-6>
 MakeJK  time:  CPU       0.19 s  wall       0.21 s
Fock build time:  0.19 s (CPU) 0.21 s (wall)
DIIS Errors:  Max 5.92E-02 RMS 1.29E-02

Current DIIS subspace size = 2
REM_GRID_RESTART_DIIS = 0

    2    -152.9835610452      1.29E-02  00000
Finding J and K together
 Job number = 22, Threshold = 1.00E-11
Integral type ranges set in mkLRange.C for JobNum: 22  <1-6|1-6>
 MakeJK  time:  CPU       0.19 s  wall       0.20 s
Fock build time:  0.19 s (CPU) 0.20 s (wall)
DIIS Errors:  Max 1.83E-02 RMS 3.38E-03

Current DIIS subspace size = 3
REM_GRID_RESTART_DIIS = 0

    3    -153.0072227920      3.38E-03  00000
Finding J and K together
 Job number = 22, Threshold = 1.00E-11
Integral type ranges set in mkLRange.C for JobNum: 22  <1-6|1-6>
 MakeJK  time:  CPU       0.19 s  wall       0.20 s
Fock build time:  0.19 s (CPU) 0.20 s (wall)
DIIS Errors:  Max 5.70E-03 RMS 1.05E-03

Current DIIS subspace size = 4
REM_GRID_RESTART_DIIS = 0

    4    -153.0089235040      1.05E-03  00000
Finding J and K together
 Job number = 22, Threshold = 1.00E-11
Integral type ranges set in mkLRange.C for JobNum: 22  <1-6|1-6>
 MakeJK  time:  CPU       0.20 s  wall       0.20 s
Fock build time:  0.20 s (CPU) 0.20 s (wall)
DIIS Errors:  Max 4.54E-04 RMS 8.94E-05

Current DIIS subspace size = 5
REM_GRID_RESTART_DIIS = 0

    5    -153.0090381614      8.94E-05  00000
Finding J and K together
 Job number = 22, Threshold = 1.00E-11
Integral type ranges set in mkLRange.C for JobNum: 22  <1-6|1-6>
 MakeJK  time:  CPU       0.19 s  wall       0.27 s
Fock build time:  0.19 s (CPU) 0.27 s (wall)
DIIS Errors:  Max 6.33E-05 RMS 1.44E-05

Current DIIS subspace size = 6
REM_GRID_RESTART_DIIS = 0

    6    -153.0090405889      1.44E-05  00000
Finding J and K together
 Job number = 22, Threshold = 1.00E-11
Integral type ranges set in mkLRange.C for JobNum: 22  <1-6|1-6>
 MakeJK  time:  CPU       0.16 s  wall       0.19 s
Fock build time:  0.16 s (CPU) 0.19 s (wall)
DIIS Errors:  Max 1.66E-05 RMS 3.38E-06

Current DIIS subspace size = 7
REM_GRID_RESTART_DIIS = 0

    7    -153.0090406483      3.38E-06  00000
Finding J and K together
 Job number = 22, Threshold = 1.00E-11
Integral type ranges set in mkLRange.C for JobNum: 22  <1-6|1-6>
 MakeJK  time:  CPU       0.14 s  wall       0.14 s
Fock build time:  0.14 s (CPU) 0.14 s (wall)
DIIS Errors:  Max 1.09E-05 RMS 1.84E-06

Current DIIS subspace size = 8
REM_GRID_RESTART_DIIS = 0

    8    -153.0090406514      1.84E-06  00000
Finding J and K together
 Job number = 22, Threshold = 1.00E-11
Integral type ranges set in mkLRange.C for JobNum: 22  <1-6|1-6>
 MakeJK  time:  CPU       0.16 s  wall       0.17 s
Fock build time:  0.16 s (CPU) 0.17 s (wall)
DIIS Errors:  Max 2.64E-06 RMS 4.94E-07

Current DIIS subspace size = 9
REM_GRID_RESTART_DIIS = 0

    9    -153.0090406520      4.94E-07  00000
Finding J and K together
 Job number = 22, Threshold = 1.00E-11
Integral type ranges set in mkLRange.C for JobNum: 22  <1-6|1-6>
 MakeJK  time:  CPU       0.14 s  wall       0.15 s
Fock build time:  0.14 s (CPU) 0.15 s (wall)
DIIS Errors:  Max 5.87E-07 RMS 1.26E-07

Current DIIS subspace size = 10
REM_GRID_RESTART_DIIS = 0

   10    -153.0090406521      1.26E-07  00000
Finding J and K together
 Job number = 22, Threshold = 1.00E-11
Integral type ranges set in mkLRange.C for JobNum: 22  <1-6|1-6>
 MakeJK  time:  CPU       0.18 s  wall       0.18 s
Fock build time:  0.18 s (CPU) 0.18 s (wall)
DIIS Errors:  Max 6.80E-08 RMS 1.29E-08

Current DIIS subspace size = 11
REM_GRID_RESTART_DIIS = 0

   11    -153.0090406521      1.29E-08  00000
Finding J and K together
 Job number = 22, Threshold = 1.00E-11
Integral type ranges set in mkLRange.C for JobNum: 22  <1-6|1-6>
 MakeJK  time:  CPU       0.15 s  wall       0.16 s
Fock build time:  0.15 s (CPU) 0.16 s (wall)
DIIS Errors:  Max 2.42E-08 RMS 3.96E-09

Current DIIS subspace size = 12
REM_GRID_RESTART_DIIS = 0

   12    -153.0090406521      3.96E-09  00000 Convergence criterion met
 ---------------------------------------
 SCF time:  CPU 2.06 s  wall 2.25 s
 SCF   energy in the final basis set = -153.00904065
 Total energy in the final basis set = -153.00904065
drvman_main.C: 73: calling DrvMan  Calculating analytic gradient of the SCF energy
drvman.C : 218: Calculating analytic gradient of the SCF energy
drvman.C: 244: calling SCF_Grad for normal SCF gradient
 Job number = 111, Threshold = 1.00E-11
Integral type ranges set in mkLRange.C for JobNum: 11  <1-6|7-7>
Finding J and K together
 ML is being used
 Job number = 122, Threshold = 1.00E-11
Integral type ranges set in mkLRange.C for JobNum: 22  <1-6|1-6>
 MakeJK  time:  CPU       0.47 s  wall       0.58 s
 Gradient of SCF Energy
            1           2           3           4           5           6
    1   0.0440278  -0.0154421  -0.0235464  -0.0085759   0.0216431   0.0102367
    2  -0.0482474   0.0102278   0.0037001   0.0289493  -0.0334057  -0.0395473
    3  -0.0113569   0.0126673  -0.0108502   0.0150129  -0.0340035   0.0024241
            7           8           9          10
    1  -0.0074716  -0.0002744  -0.0076208  -0.0129764
    2   0.0059492   0.0188280   0.0053946   0.0481514
    3  -0.0114512   0.0087604  -0.0098297   0.0386268
 Max gradient component =       4.825E-02
 RMS gradient           =       2.306E-02
drvman.C: 248: out of SCF_Grad for normal SCF gradient
 Gradient time:  CPU 0.48 s  wall 0.59 s
 ------------------------------------------------------------------------------
                     drvman        : Timing summary (seconds)
 ------------------------------------------------------------------------------
     job step          cpu (% of tot)      sys (% of tot)     wall (% of tot)
 ------------------------------------------------------------------------------
 ------------------------------------------------------------------------------
   Grand Totals     0.4840E+00          0.3000E-05          0.5949E+00
 ------------------------------------------------------------------------------
drvman_main.C: 77: out of DrvMan  Time for this dynamics step: 2.6 s (CPU) 2.9 s (wall)

TIME STEP #6 (t = 100.000 a.u. = 2.41888 fs)
--------------------------------------
 Instantaneous Temperature = 410.6 K
 ----------------------------------------------------------------
             Standard Nuclear Orientation (Angstroms)
    I     Atom           X                Y                Z
 ----------------------------------------------------------------
    1      C       5.4032243521    -0.8880232721    -0.3134445635
    2      C       4.3284752363    -0.1180103941    -0.2843642152
    3      H       6.1981718093    -0.6873545072     0.3541281755
    4      H       5.4659307242    -1.6248761626    -1.0627716589
    5      C       3.1841570209    -0.3055553993    -1.2094937799
    6      C       2.0961978786     0.4118686761    -1.1677500199
    7      H       1.2867731147     0.3275898264    -1.9003891293
    8      H       2.0123018269     1.3008890926    -0.5186807481
    9      H       4.1893214698     0.7703018101     0.3228122227
   10      H       3.1596170906    -1.1039472709    -1.8659789438
 ----------------------------------------------------------------
 Nuclear Repulsion Energy =   104.7447616035 hartrees
 There are       15 alpha and       15 beta electrons

                       Distance Matrix (Angstroms)
             C (  1)   C (  2)   H (  3)   H (  4)   C (  5)   C (  6)
   C (  2)  1.322441
   H (  3)  1.057290  2.056111
   H (  4)  1.052794  2.042148  1.850062
   C (  5)  2.463013  1.483409  3.416865  2.639816
   C (  6)  3.654584  2.458496  4.511163  3.938839  1.303877
   H (  7)  4.576164  3.473046  5.498618  4.688186  2.116194  1.095003
   H (  8)  4.041264  2.726323  4.715550  4.558913  2.105025  1.103941
   H (  9)  2.151377  1.084954  2.482181  3.047368  2.125038  2.594497
   H ( 10)  2.736925  2.199956  3.786191  2.497117  1.033927  1.978909
             H (  7)   H (  8)   H (  9)
   H (  8)  1.839245
   H (  9)  3.682853  2.393543
   H ( 10)  2.357547  2.985763  3.060050

 Applying Cartesian multipole field
    Component          Value
    ---------          -----
     (2,0,0)        1.00000E-12
     (0,2,0)        2.00000E-11
     (0,0,2)       -3.00000E-11
 Nucleus-field energy     =    -0.0000000002 hartrees
 ENuRep (before)= 104.7447616035
 ENucField = -0.0000000002
 ENuRep (after) = 104.7447616033
 Job number = 2, Threshold = 1.00E-11
Integral type ranges set in mkLRange.C for JobNum: 2  <1-6|1-6>
Symmetry turned off temporarily
Symmetry turned back on
 Job number = 11, Threshold = 1.00E-11
Integral type ranges set in mkLRange.C for JobNum: 11  <1-6|7-7>
 Smallest overlap matrix eigenvalue = 1.73E-01
 Multipole matrices computed through 2nd order
 Guess from superposition of atomic densities
 Warning:  Energy on first SCF cycle will be non-variational
 SAD guess density has 30.000000 electrons
 SCF convergence criterion is 10**(-8)
 A restricted Hartree-Fock SCF calculation will be
 performed using Pulay DIIS extrapolation
 SCF converges when DIIS error is below 1.0E-08
Finding J and K together
 Job number = 22, Threshold = 1.00E-11
Integral type ranges set in mkLRange.C for JobNum: 22  <1-6|1-6>
 MakeJK  time:  CPU       0.14 s  wall       0.18 s
Fock build time:  0.14 s (CPU) 0.18 s (wall)
DIIS Errors:  Max 1.17E+00 RMS 2.21E-01

Current DIIS subspace size = 1
REM_GRID_RESTART_DIIS = 0

 ---------------------------------------
  Cycle       Energy         DIIS Error
 ---------------------------------------
    1    -152.7655153280      2.21E-01  00000
Finding J and K together
 Job number = 22, Threshold = 1.00E-11
Integral type ranges set in mkLRange.C for JobNum: 22  <1-6|1-6>
 MakeJK  time:  CPU       0.18 s  wall       0.23 s
Fock build time:  0.18 s (CPU) 0.23 s (wall)
DIIS Errors:  Max 6.02E-02 RMS 1.29E-02

Current DIIS subspace size = 2
REM_GRID_RESTART_DIIS = 0

    2    -152.9830667145      1.29E-02  00000
Finding J and K together
 Job number = 22, Threshold = 1.00E-11
Integral type ranges set in mkLRange.C for JobNum: 22  <1-6|1-6>
 MakeJK  time:  CPU       0.18 s  wall       0.19 s
Fock build time:  0.18 s (CPU) 0.19 s (wall)
DIIS Errors:  Max 1.82E-02 RMS 3.38E-03

Current DIIS subspace size = 3
REM_GRID_RESTART_DIIS = 0

    3    -153.0067516809      3.38E-03  00000
Finding J and K together
 Job number = 22, Threshold = 1.00E-11
Integral type ranges set in mkLRange.C for JobNum: 22  <1-6|1-6>
 MakeJK  time:  CPU       0.15 s  wall       0.15 s
Fock build time:  0.15 s (CPU) 0.15 s (wall)
DIIS Errors:  Max 5.35E-03 RMS 1.03E-03

Current DIIS subspace size = 4
REM_GRID_RESTART_DIIS = 0

    4    -153.0084468160      1.03E-03  00000
Finding J and K together
 Job number = 22, Threshold = 1.00E-11
Integral type ranges set in mkLRange.C for JobNum: 22  <1-6|1-6>
 MakeJK  time:  CPU       0.14 s  wall       0.14 s
Fock build time:  0.14 s (CPU) 0.15 s (wall)
DIIS Errors:  Max 4.39E-04 RMS 8.74E-05

Current DIIS subspace size = 5
REM_GRID_RESTART_DIIS = 0

    5    -153.0085570739      8.74E-05  00000
Finding J and K together
 Job number = 22, Threshold = 1.00E-11
Integral type ranges set in mkLRange.C for JobNum: 22  <1-6|1-6>
 MakeJK  time:  CPU       0.16 s  wall       0.16 s
Fock build time:  0.16 s (CPU) 0.16 s (wall)
DIIS Errors:  Max 6.35E-05 RMS 1.43E-05

Current DIIS subspace size = 6
REM_GRID_RESTART_DIIS = 0

    6    -153.0085592949      1.43E-05  00000
Finding J and K together
 Job number = 22, Threshold = 1.00E-11
Integral type ranges set in mkLRange.C for JobNum: 22  <1-6|1-6>
 MakeJK  time:  CPU       0.16 s  wall       0.16 s
Fock build time:  0.16 s (CPU) 0.16 s (wall)
DIIS Errors:  Max 2.09E-05 RMS 3.67E-06

Current DIIS subspace size = 7
REM_GRID_RESTART_DIIS = 0

    7    -153.0085593582      3.67E-06  00000
Finding J and K together
 Job number = 22, Threshold = 1.00E-11
Integral type ranges set in mkLRange.C for JobNum: 22  <1-6|1-6>
 MakeJK  time:  CPU       0.17 s  wall       0.18 s
Fock build time:  0.17 s (CPU) 0.18 s (wall)
DIIS Errors:  Max 6.94E-06 RMS 1.17E-06

Current DIIS subspace size = 8
REM_GRID_RESTART_DIIS = 0

    8    -153.0085593615      1.17E-06  00000
Finding J and K together
 Job number = 22, Threshold = 1.00E-11
Integral type ranges set in mkLRange.C for JobNum: 22  <1-6|1-6>
 MakeJK  time:  CPU       0.15 s  wall       0.16 s
Fock build time:  0.16 s (CPU) 0.16 s (wall)
DIIS Errors:  Max 1.69E-06 RMS 3.17E-07

Current DIIS subspace size = 9
REM_GRID_RESTART_DIIS = 0

    9    -153.0085593619      3.17E-07  00000
Finding J and K together
 Job number = 22, Threshold = 1.00E-11
Integral type ranges set in mkLRange.C for JobNum: 22  <1-6|1-6>
 MakeJK  time:  CPU       0.16 s  wall       0.17 s
Fock build time:  0.16 s (CPU) 0.17 s (wall)
DIIS Errors:  Max 3.29E-07 RMS 5.59E-08

Current DIIS subspace size = 10
REM_GRID_RESTART_DIIS = 0

   10    -153.0085593619      5.59E-08  00000
Finding J and K together
 Job number = 22, Threshold = 1.00E-11
Integral type ranges set in mkLRange.C for JobNum: 22  <1-6|1-6>
 MakeJK  time:  CPU       0.14 s  wall       0.14 s
Fock build time:  0.14 s (CPU) 0.14 s (wall)
DIIS Errors:  Max 1.30E-07 RMS 1.85E-08

Current DIIS subspace size = 11
REM_GRID_RESTART_DIIS = 0

   11    -153.0085593619      1.85E-08  00000
Finding J and K together
 Job number = 22, Threshold = 1.00E-11
Integral type ranges set in mkLRange.C for JobNum: 22  <1-6|1-6>
 MakeJK  time:  CPU       0.16 s  wall       0.16 s
Fock build time:  0.16 s (CPU) 0.16 s (wall)
DIIS Errors:  Max 3.14E-08 RMS 4.67E-09

Current DIIS subspace size = 12
REM_GRID_RESTART_DIIS = 0

   12    -153.0085593619      4.67E-09  00000 Convergence criterion met
 ---------------------------------------
 SCF time:  CPU 1.92 s  wall 2.05 s
 SCF   energy in the final basis set = -153.00855936
 Total energy in the final basis set = -153.00855936
drvman_main.C: 73: calling DrvMan  Calculating analytic gradient of the SCF energy
drvman.C : 218: Calculating analytic gradient of the SCF energy
drvman.C: 244: calling SCF_Grad for normal SCF gradient
 Job number = 111, Threshold = 1.00E-11
Integral type ranges set in mkLRange.C for JobNum: 11  <1-6|7-7>
Finding J and K together
 ML is being used
 Job number = 122, Threshold = 1.00E-11
Integral type ranges set in mkLRange.C for JobNum: 22  <1-6|1-6>
 MakeJK  time:  CPU       0.44 s  wall       0.44 s
 Gradient of SCF Energy
            1           2           3           4           5           6
    1   0.0379461  -0.0030851  -0.0229458  -0.0089560   0.0106226   0.0168948
    2  -0.0426160   0.0037048   0.0045046   0.0264737  -0.0177554  -0.0486116
    3  -0.0085179   0.0169365  -0.0097272   0.0110010  -0.0303249   0.0036155
            7           8           9          10
    1  -0.0067852   0.0001219  -0.0095714  -0.0142419
    2   0.0080295   0.0175964   0.0072796   0.0413945
    3  -0.0113232   0.0064945  -0.0112184   0.0330641
 Max gradient component =       4.861E-02
 RMS gradient           =       2.087E-02
drvman.C: 248: out of SCF_Grad for normal SCF gradient
 Gradient time:  CPU 0.46 s  wall 0.46 s
 ------------------------------------------------------------------------------
                     drvman        : Timing summary (seconds)
 ------------------------------------------------------------------------------
     job step          cpu (% of tot)      sys (% of tot)     wall (% of tot)
 ------------------------------------------------------------------------------
 ------------------------------------------------------------------------------
   Grand Totals     0.4600E+00          0.2000E-05          0.4620E+00
 ------------------------------------------------------------------------------
drvman_main.C: 77: out of DrvMan  Time for this dynamics step: 2.4 s (CPU) 2.6 s (wall)

TIME STEP #7 (t = 120.000 a.u. = 2.90266 fs)
--------------------------------------
 Instantaneous Temperature = 399.6 K
 ----------------------------------------------------------------
             Standard Nuclear Orientation (Angstroms)
    I     Atom           X                Y                Z
 ----------------------------------------------------------------
    1      C       5.4016263633    -0.8862994438    -0.3092485438
    2      C       4.3319881506    -0.1185044645    -0.2806723972
    3      H       6.2011183597    -0.6868250612     0.3596224158
    4      H       5.4619555133    -1.6191515515    -1.0739188765
    5      C       3.1829444483    -0.3018683267    -1.2126340886
    6      C       2.0962771786     0.4061144154    -1.1690401361
    7      H       1.2923206453     0.3365715341    -1.9062416276
    8      H       2.0157476325     1.2964388524    -0.5295365588
    9      H       4.1798379741     0.7795662072     0.3124583322
   10      H       3.1518289481    -1.1140261055    -1.8744303848
 ----------------------------------------------------------------
 Nuclear Repulsion Energy =   104.7309902143 hartrees
 There are       15 alpha and       15 beta electrons

                       Distance Matrix (Angstroms)
             C (  1)   C (  2)   H (  3)   H (  4)   C (  5)   C (  6)
   C (  2)  1.316986
   H (  3)  1.061304  2.055873
   H (  4)  1.060864  2.039119  1.862964
   C (  5)  2.465809  1.490797  3.424844  2.635976
   C (  6)  3.651699  2.462281  4.514537  3.929191  1.297685
   H (  7)  4.575171  3.476945  5.502524  4.680114  2.112618  1.093000
   H (  8)  4.034482  2.725613  4.716065  4.546798  2.093694  1.099149
   H (  9)  2.157405  1.086961  2.497619  3.052821  2.118774  2.583705
   H ( 10)  2.750135  2.218987  3.804163  2.496529  1.048114  1.980553
             H (  7)   H (  8)   H (  9)
   H (  8)  1.827569
   H (  9)  3.668328  2.378949
   H ( 10)  2.358605  2.984922  3.070012

 Applying Cartesian multipole field
    Component          Value
    ---------          -----
     (2,0,0)        1.00000E-12
     (0,2,0)        2.00000E-11
     (0,0,2)       -3.00000E-11
 Nucleus-field energy     =    -0.0000000002 hartrees
 ENuRep (before)= 104.7309902143
 ENucField = -0.0000000002
 ENuRep (after) = 104.7309902140
[...]
 ML is being used
 Job number = 122, Threshold = 1.00E-11
Integral type ranges set in mkLRange.C for JobNum: 22  <1-6|1-6>
 MakeJK  time:  CPU       0.37 s  wall       0.37 s
 Gradient of SCF Energy
            1           2           3           4           5           6
    1   0.0429164  -0.0549529  -0.0038532  -0.0071028   0.0247509   0.0008975
    2   0.0053577  -0.0325856  -0.0040011   0.0043844  -0.0030670   0.0287953
    3   0.0049759  -0.0894394  -0.0021149   0.0104243   0.0205219   0.0028003
            7           8           9          10
    1   0.0023426  -0.0192870   0.0081508   0.0061378
    2  -0.0096502  -0.0030548   0.0108200   0.0030014
    3   0.0039243   0.0064487   0.0191446   0.0233142
 Max gradient component =       8.944E-02
 RMS gradient           =       2.432E-02
drvman.C: 248: out of SCF_Grad for normal SCF gradient
 Gradient time:  CPU 0.38 s  wall 0.38 s
 ------------------------------------------------------------------------------
                     drvman        : Timing summary (seconds)
 ------------------------------------------------------------------------------
     job step          cpu (% of tot)      sys (% of tot)     wall (% of tot)
 ------------------------------------------------------------------------------
 ------------------------------------------------------------------------------
   Grand Totals     0.3840E+00          0.1000E-05          0.3846E+00
 ------------------------------------------------------------------------------
drvman_main.C: 77: out of DrvMan  Time for this dynamics step: 1.8 s (CPU) 1.9 s (wall)

TIME STEP #399 (t = 7960.000 a.u. = 192.54319 fs)
--------------------------------------
 Instantaneous Temperature = 308.5 K
 ----------------------------------------------------------------
             Standard Nuclear Orientation (Angstroms)
    I     Atom           X                Y                Z
 ----------------------------------------------------------------
    1      C       5.0624864522    -0.1247682172     0.5130129073
    2      C       3.8522689468    -0.1083985249    -0.0634775235
    3      H       5.1301180599     0.1137722925     1.5590570347
    4      H       5.9716194575    -0.4369676172     0.0566995361
    5      C       3.6188338075    -0.4188304878    -1.4364769910
    6      C       2.4565412568    -0.2184606226    -2.0323779265
    7      H       2.3092153992    -0.5962978799    -3.0428231066
    8      H       1.5335901088     0.0653405102    -1.4760433917
    9      H       3.0938440837     0.3170073956     0.6145812971
   10      H       4.5347732429    -0.8286742080    -1.8552749963
 ----------------------------------------------------------------
 Nuclear Repulsion Energy =   104.6214781055 hartrees
 There are       15 alpha and       15 beta electrons

                       Distance Matrix (Angstroms)
             C (  1)   C (  2)   H (  3)   H (  4)   C (  5)   C (  6)
   C (  2)  1.340610
   H (  3)  1.075027  2.077228
   H (  4)  1.064055  2.148033  1.807904
   C (  5)  2.443587  1.426880  3.397186  2.786666
   C (  6)  3.644001  2.415934  4.489632  4.094846  1.321427
   H (  7)  4.521815  3.390510  5.444170  4.800586  2.080130  1.088791
   H (  8)  4.055317  2.720625  4.706293  4.722046  2.141081  1.114401
   H (  9)  2.020157  1.102698  2.253830  3.026764  2.241408  2.774757
   H ( 10)  2.526411  2.048206  3.591699  2.423553  1.087340  2.173194
             H (  7)   H (  8)   H (  9)
   H (  8)  1.869267
   H (  9)  3.850503  2.620771
   H ( 10)  2.533254  3.154390  3.080431

 Applying Cartesian multipole field
    Component          Value
    ---------          -----
     (2,0,0)        1.00000E-12
     (0,2,0)        2.00000E-11
     (0,0,2)       -3.00000E-11
 Nucleus-field energy     =    -0.0000000042 hartrees
 ENuRep (before)= 104.6214781055
 ENucField = -0.0000000042
 ENuRep (after) = 104.6214781013
 Job number = 2, Threshold = 1.00E-11
Integral type ranges set in mkLRange.C for JobNum: 2  <1-6|1-6>
Symmetry turned off temporarily
Symmetry turned back on
 Job number = 11, Threshold = 1.00E-11
Integral type ranges set in mkLRange.C for JobNum: 11  <1-6|7-7>
 Smallest overlap matrix eigenvalue = 1.80E-01
 Multipole matrices computed through 2nd order
 Extrapolating the Fock matrix using 12 points and a 6th-order polynomial
 Alpha Fock matrix extrapolation
 Skip SCF guess (diagonalize extrapolated Fock matrix instead)
 SCF convergence criterion is 10**(-8)
 A restricted Hartree-Fock SCF calculation will be
 performed using Pulay DIIS extrapolation
 SCF converges when DIIS error is below 1.0E-08
Extrapolated Fock matrix used in lieu of Fock build
Fock build time:  0.00 s (CPU) 0.00 s (wall)
DIIS Errors:  Max 1.38E-02 RMS 2.06E-03

Current DIIS subspace size = 1
REM_GRID_RESTART_DIIS = 0

 ---------------------------------------
  Cycle       Energy         DIIS Error
 ---------------------------------------
    1    -308.8385349617      2.06E-03  00000
Finding J and K together
 Job number = 22, Threshold = 1.00E-11
Integral type ranges set in mkLRange.C for JobNum: 22  <1-6|1-6>
 MakeJK  time:  CPU       0.16 s  wall       0.20 s
Fock build time:  0.16 s (CPU) 0.20 s (wall)
DIIS Errors:  Max 2.00E-03 RMS 2.28E-04

Current DIIS subspace size = 2
REM_GRID_RESTART_DIIS = 0

    2    -153.0033036158      2.28E-04  00000
Finding J and K together
 Job number = 22, Threshold = 1.00E-11
Integral type ranges set in mkLRange.C for JobNum: 22  <1-6|1-6>
 MakeJK  time:  CPU       0.14 s  wall       0.15 s
Fock build time:  0.14 s (CPU) 0.15 s (wall)
DIIS Errors:  Max 1.35E-04 RMS 1.85E-05

Current DIIS subspace size = 3
REM_GRID_RESTART_DIIS = 0

    3    -153.0033045547      1.85E-05  00000
Finding J and K together
 Job number = 22, Threshold = 1.00E-11
Integral type ranges set in mkLRange.C for JobNum: 22  <1-6|1-6>
 MakeJK  time:  CPU       0.16 s  wall       0.17 s
Fock build time:  0.16 s (CPU) 0.17 s (wall)
DIIS Errors:  Max 2.11E-05 RMS 2.55E-06

Current DIIS subspace size = 4
REM_GRID_RESTART_DIIS = 0

    4    -153.0033045719      2.55E-06  00000
Finding J and K together
 Job number = 22, Threshold = 1.00E-11
Integral type ranges set in mkLRange.C for JobNum: 22  <1-6|1-6>
 MakeJK  time:  CPU       0.13 s  wall       0.13 s
Fock build time:  0.13 s (CPU) 0.13 s (wall)
DIIS Errors:  Max 7.27E-06 RMS 1.26E-06

Current DIIS subspace size = 5
REM_GRID_RESTART_DIIS = 0

    5    -153.0033045732      1.26E-06  00000
Finding J and K together
 Job number = 22, Threshold = 1.00E-11
Integral type ranges set in mkLRange.C for JobNum: 22  <1-6|1-6>
 MakeJK  time:  CPU       0.13 s  wall       0.14 s
Fock build time:  0.13 s (CPU) 0.14 s (wall)
DIIS Errors:  Max 1.94E-06 RMS 2.57E-07

Current DIIS subspace size = 6
REM_GRID_RESTART_DIIS = 0

    6    -153.0033045734      2.57E-07  00000
Finding J and K together
 Job number = 22, Threshold = 1.00E-11
Integral type ranges set in mkLRange.C for JobNum: 22  <1-6|1-6>
 MakeJK  time:  CPU       0.17 s  wall       0.17 s
Fock build time:  0.17 s (CPU) 0.17 s (wall)
DIIS Errors:  Max 4.31E-07 RMS 6.54E-08

Current DIIS subspace size = 7
REM_GRID_RESTART_DIIS = 0

    7    -153.0033045734      6.54E-08  00000
Finding J and K together
 Job number = 22, Threshold = 1.00E-11
Integral type ranges set in mkLRange.C for JobNum: 22  <1-6|1-6>
 MakeJK  time:  CPU       0.14 s  wall       0.15 s
Fock build time:  0.14 s (CPU) 0.15 s (wall)
DIIS Errors:  Max 1.30E-07 RMS 2.55E-08

Current DIIS subspace size = 8
REM_GRID_RESTART_DIIS = 0

    8    -153.0033045734      2.55E-08  00000
Finding J and K together
 Job number = 22, Threshold = 1.00E-11
Integral type ranges set in mkLRange.C for JobNum: 22  <1-6|1-6>
 MakeJK  time:  CPU       0.16 s  wall       0.17 s
Fock build time:  0.16 s (CPU) 0.17 s (wall)
DIIS Errors:  Max 4.50E-08 RMS 6.57E-09

Current DIIS subspace size = 9
REM_GRID_RESTART_DIIS = 0

    9    -153.0033045734      6.57E-09  00000 Convergence criterion met
 ---------------------------------------
 SCF time:  CPU 1.22 s  wall 1.30 s
 SCF   energy in the final basis set = -153.00330457
 Total energy in the final basis set = -153.00330457
drvman_main.C: 73: calling DrvMan  Calculating analytic gradient of the SCF energy
drvman.C : 218: Calculating analytic gradient of the SCF energy
drvman.C: 244: calling SCF_Grad for normal SCF gradient
 Job number = 111, Threshold = 1.00E-11
Integral type ranges set in mkLRange.C for JobNum: 11  <1-6|7-7>
Finding J and K together
 ML is being used
 Job number = 122, Threshold = 1.00E-11
Integral type ranges set in mkLRange.C for JobNum: 22  <1-6|1-6>
 MakeJK  time:  CPU       0.44 s  wall       0.45 s
 Gradient of SCF Energy
            1           2           3           4           5           6
    1   0.0457156  -0.0469279  -0.0049750  -0.0115194   0.0151713   0.0101313
    2   0.0058324  -0.0365449  -0.0052285   0.0059167   0.0018560   0.0288062
    3   0.0033550  -0.0878322  -0.0048280   0.0124518   0.0225887  -0.0004185
            7           8           9          10
    1   0.0025356  -0.0268600   0.0039573   0.0127712
    2  -0.0119281  -0.0015157   0.0140539  -0.0012481
    3  -0.0013637   0.0140012   0.0219443   0.0201012
 Max gradient component =       8.783E-02
 RMS gradient           =       2.436E-02
drvman.C: 248: out of SCF_Grad for normal SCF gradient
 Gradient time:  CPU 0.46 s  wall 0.47 s
 ------------------------------------------------------------------------------
                     drvman        : Timing summary (seconds)
 ------------------------------------------------------------------------------
     job step          cpu (% of tot)      sys (% of tot)     wall (% of tot)
 ------------------------------------------------------------------------------
 ------------------------------------------------------------------------------
   Grand Totals     0.4560E+00          0.2000E-05          0.4739E+00
 ------------------------------------------------------------------------------
drvman_main.C: 77: out of DrvMan  Time for this dynamics step: 1.7 s (CPU) 1.8 s (wall)

TIME STEP #400 (t = 7980.000 a.u. = 193.02697 fs)
--------------------------------------
 Instantaneous Temperature = 288.9 K
 ----------------------------------------------------------------
             Standard Nuclear Orientation (Angstroms)
    I     Atom           X                Y                Z
 ----------------------------------------------------------------
    1      C       5.0608418068    -0.1222098358     0.5142130887
    2      C       3.8533987264    -0.1095594385    -0.0600687530
    3      H       5.1209841414     0.1103016645     1.5597249307
    4      H       5.9681410523    -0.4344180509     0.0611154413
    5      C       3.6184280045    -0.4168261687    -1.4371136639
    6      C       2.4584002580    -0.2200153993    -2.0369182011
    7      H       2.3133679556    -0.6034149006    -3.0515655050
    8      H       1.5310809506     0.0509491864    -1.4613534960
    9      H       3.0892328436     0.3273418706     0.6123460924
   10      H       4.5391809022    -0.8385712029    -1.8573080983
 ----------------------------------------------------------------
 Nuclear Repulsion Energy =   104.5334192784 hartrees
 There are       15 alpha and       15 beta electrons

                       Distance Matrix (Angstroms)
             C (  1)   C (  2)   H (  3)   H (  4)   C (  5)   C (  6)
   C (  2)  1.337116
   H (  3)  1.072741  2.068537
   H (  4)  1.061114  2.142978  1.805609
   C (  5)  2.444388  1.430341  3.393609  2.786782
   C (  6)  3.645619  2.422015  4.487126  4.094630  1.320668
   H (  7)  4.527135  3.400682  5.445741  4.803614  2.084335  1.094321
   H (  8)  4.048711  2.717080  4.692317  4.716036  2.139257  1.124552
   H (  9)  2.024591  1.107689  2.252254  3.028572  2.243684  2.777796
   H ( 10)  2.531683  2.057140  3.593740  2.426029  1.096457  2.178192
             H (  7)   H (  8)   H (  9)
   H (  8)  1.889164
   H (  9)  3.859083  2.608536
   H ( 10)  2.536886  3.161755  3.092070

 Applying Cartesian multipole field
    Component          Value
    ---------          -----
     (2,0,0)        1.00000E-12
     (0,2,0)        2.00000E-11
     (0,0,2)       -3.00000E-11
 Nucleus-field energy     =    -0.0000000042 hartrees
 ENuRep (before)= 104.5334192784
 ENucField = -0.0000000042
 ENuRep (after) = 104.5334192742
 Job number = 2, Threshold = 1.00E-11
Integral type ranges set in mkLRange.C for JobNum: 2  <1-6|1-6>
Symmetry turned off temporarily
Symmetry turned back on
 Job number = 11, Threshold = 1.00E-11
Integral type ranges set in mkLRange.C for JobNum: 11  <1-6|7-7>
 Smallest overlap matrix eigenvalue = 1.80E-01
 Multipole matrices computed through 2nd order
 Extrapolating the Fock matrix using 12 points and a 6th-order polynomial
 Alpha Fock matrix extrapolation
 Skip SCF guess (diagonalize extrapolated Fock matrix instead)
 SCF convergence criterion is 10**(-8)
 A restricted Hartree-Fock SCF calculation will be
 performed using Pulay DIIS extrapolation
 SCF converges when DIIS error is below 1.0E-08
Extrapolated Fock matrix used in lieu of Fock build
Fock build time:  0.00 s (CPU) 0.00 s (wall)
DIIS Errors:  Max 1.23E-02 RMS 1.89E-03

Current DIIS subspace size = 1
REM_GRID_RESTART_DIIS = 0

 ---------------------------------------
  Cycle       Energy         DIIS Error
 ---------------------------------------
    1    -308.7872721418      1.89E-03  00000
Finding J and K together
 Job number = 22, Threshold = 1.00E-11
Integral type ranges set in mkLRange.C for JobNum: 22  <1-6|1-6>
 MakeJK  time:  CPU       0.16 s  wall       0.15 s
Fock build time:  0.16 s (CPU) 0.15 s (wall)
DIIS Errors:  Max 4.24E-03 RMS 3.70E-04

Current DIIS subspace size = 2
REM_GRID_RESTART_DIIS = 0

    2    -153.0024520574      3.70E-04  00000
Finding J and K together
 Job number = 22, Threshold = 1.00E-11
Integral type ranges set in mkLRange.C for JobNum: 22  <1-6|1-6>
 MakeJK  time:  CPU       0.16 s  wall       0.17 s
Fock build time:  0.16 s (CPU) 0.17 s (wall)
DIIS Errors:  Max 4.53E-04 RMS 4.23E-05

Current DIIS subspace size = 3
REM_GRID_RESTART_DIIS = 0

    3    -153.0024543548      4.23E-05  00000
Finding J and K together
 Job number = 22, Threshold = 1.00E-11
Integral type ranges set in mkLRange.C for JobNum: 22  <1-6|1-6>
 MakeJK  time:  CPU       0.16 s  wall       0.17 s
Fock build time:  0.16 s (CPU) 0.17 s (wall)
DIIS Errors:  Max 2.03E-05 RMS 2.53E-06

Current DIIS subspace size = 4
REM_GRID_RESTART_DIIS = 0

    4    -153.0024544019      2.53E-06  00000
Finding J and K together
 Job number = 22, Threshold = 1.00E-11
Integral type ranges set in mkLRange.C for JobNum: 22  <1-6|1-6>
 MakeJK  time:  CPU       0.15 s  wall       0.15 s
Fock build time:  0.15 s (CPU) 0.15 s (wall)
DIIS Errors:  Max 6.28E-06 RMS 1.23E-06

Current DIIS subspace size = 5
REM_GRID_RESTART_DIIS = 0

    5    -153.0024544030      1.23E-06  00000
Finding J and K together
 Job number = 22, Threshold = 1.00E-11
Integral type ranges set in mkLRange.C for JobNum: 22  <1-6|1-6>
 MakeJK  time:  CPU       0.13 s  wall       0.13 s
Fock build time:  0.13 s (CPU) 0.13 s (wall)
DIIS Errors:  Max 1.46E-06 RMS 2.27E-07

Current DIIS subspace size = 6
REM_GRID_RESTART_DIIS = 0

    6    -153.0024544032      2.27E-07  00000
Finding J and K together
 Job number = 22, Threshold = 1.00E-11
Integral type ranges set in mkLRange.C for JobNum: 22  <1-6|1-6>
 MakeJK  time:  CPU       0.15 s  wall       0.15 s
Fock build time:  0.15 s (CPU) 0.15 s (wall)
DIIS Errors:  Max 5.93E-07 RMS 6.59E-08

Current DIIS subspace size = 7
REM_GRID_RESTART_DIIS = 0

    7    -153.0024544032      6.59E-08  00000
Finding J and K together
 Job number = 22, Threshold = 1.00E-11
Integral type ranges set in mkLRange.C for JobNum: 22  <1-6|1-6>
 MakeJK  time:  CPU       0.14 s  wall       0.14 s
Fock build time:  0.14 s (CPU) 0.14 s (wall)
DIIS Errors:  Max 1.94E-07 RMS 3.09E-08

Current DIIS subspace size = 8
REM_GRID_RESTART_DIIS = 0

    8    -153.0024544032      3.09E-08  00000
Finding J and K together
 Job number = 22, Threshold = 1.00E-11
Integral type ranges set in mkLRange.C for JobNum: 22  <1-6|1-6>
 MakeJK  time:  CPU       0.14 s  wall       0.14 s
Fock build time:  0.14 s (CPU) 0.14 s (wall)
DIIS Errors:  Max 3.54E-08 RMS 5.57E-09

Current DIIS subspace size = 9
REM_GRID_RESTART_DIIS = 0

    9    -153.0024544032      5.57E-09  00000 Convergence criterion met
 ---------------------------------------
 SCF time:  CPU 1.20 s  wall 1.23 s
 SCF   energy in the final basis set = -153.00245440
 Total energy in the final basis set = -153.00245440
drvman_main.C: 73: calling DrvMan  Calculating analytic gradient of the SCF energy
drvman.C : 218: Calculating analytic gradient of the SCF energy
drvman.C: 244: calling SCF_Grad for normal SCF gradient
 Job number = 111, Threshold = 1.00E-11
Integral type ranges set in mkLRange.C for JobNum: 11  <1-6|7-7>
Finding J and K together
 ML is being used
 Job number = 122, Threshold = 1.00E-11
Integral type ranges set in mkLRange.C for JobNum: 22  <1-6|1-6>
 MakeJK  time:  CPU       0.46 s  wall       0.47 s
 Gradient of SCF Energy
            1           2           3           4           5           6
    1   0.0452165  -0.0382563  -0.0060305  -0.0140391   0.0058016   0.0171562
    2   0.0066051  -0.0393839  -0.0062243   0.0067864   0.0065706   0.0291589
    3   0.0011684  -0.0827495  -0.0068439   0.0134982   0.0237594  -0.0031362
            7           8           9          10
    1   0.0027136  -0.0319617   0.0006989   0.0187008
    2  -0.0138532  -0.0008509   0.0165622  -0.0053709
    3  -0.0060387   0.0202450   0.0232646   0.0168327
 Max gradient component =       8.275E-02
 RMS gradient           =       2.411E-02
drvman.C: 248: out of SCF_Grad for normal SCF gradient
 Gradient time:  CPU 0.48 s  wall 0.49 s
 ------------------------------------------------------------------------------
                     drvman        : Timing summary (seconds)
 ------------------------------------------------------------------------------
     job step          cpu (% of tot)      sys (% of tot)     wall (% of tot)
 ------------------------------------------------------------------------------
 ------------------------------------------------------------------------------
   Grand Totals     0.4840E+00          0.2000E-05          0.4937E+00
 ------------------------------------------------------------------------------
drvman_main.C: 77: out of DrvMan  Time for this dynamics step: 1.7 s (CPU) 1.8 s (wall)

=============== TIME STEPS COMPLETED ==================

Step-to-Step energy fluctuations, |E(n) - E(n-1)|
Mean: 2.961e-07   Max: 6.219e-05   RMS: 2.435e-05
Overall energy fluctuations, |E(n) - E(0)|
Mean: 1.055e-04   Max: 2.131e-04   RMS: 3.917e-05   RMS(dE)/RMS(dV): 1.146e-02
Kinetic energy fluctuations, |T(n) - V(0)|
Mean: -9.992e-03   Max: 2.067e-02   RMS: 3.392e-03
Potential energy fluctuations, |V(n) - V(0)|
Mean: 1.010e-02   Max: 2.088e-02   RMS: 3.418e-03


 JobOver = TRUE
Archival summary:
1\1\qciep03\JobtypUnspecified\HF\STO-3G\46\jcartus\MonJun1812:31:532018MonJun1812:31:532018\0\\#,JobtypUnspecified,HF,STO-3G,\\0,1\C\H,1,1.10769\C,1,1.33712,2,111.468\H,3,1.06111,1,126.264,2,-176.134,0\H,3,1.07274,1,117.851,2,10.3563,0\C,1,1.43034,2,123.768,3,-170.594,0\H,6,1.09646,1,108.278,2,-179.795,0\C,6,1.32067,1,123.334,2,-0.694997,0\H,8,1.09432,6,119.032,1,-171.781,0\H,8,1.12455,6,121.855,1,-9.90618,0\\HF=-153.002454\\@

 Total job time:  787.32s(wall), 758.00s(cpu) 
 Mon Jun 18 12:31:53 2018

        *************************************************************
        *                                                           *
        *  Thank you very much for using Q-Chem.  Have a nice day.  *
        *                                                           *
        *************************************************************


*** MISSION COMPLETED -- STARFLEET OUT ***

0 sent ACK to 0 
now end server 0 ... 
