Process 0 of 1 is on qciep03 - thread support 0
initial socket setup ...start
initial socket setup ...done 
now start server 0 ... 
qciep03.tugraz.at 127.0.1
Q-Chem Developer Version! Running on 127.0.1.*
                  Welcome to Q-Chem
     A Quantum Leap Into The Future Of Chemistry


 Q-Chem 5.0, Q-Chem, Inc., Pleasanton, CA (2017)

 Yihan Shao,  Zhengting Gan,  E. Epifanovsky,  A. T. B. Gilbert,  M. Wormit,  
 J. Kussmann,  A. W. Lange,  A. Behn,  Jia Deng,  Xintian Feng,  D. Ghosh,  
 M. Goldey,  P. R. Horn,  L. D. Jacobson,  I. Kaliman,  T. Kus,  A. Landau,  
 Jie Liu,  E. I. Proynov,  R. M. Richard,  R. P. Steele,  E. J. Sundstrom,  
 H. L. Woodcock III,  P. M. Zimmerman,  D. Zuev,  B. Albrecht,  E. Alguire,  
 S. A. Baeppler,  D. Barton,  Z. Benda,  Y. A. Bernard,  E. J. Berquist,  
 K. B. Bravaya,  H. Burton,  D. Casanova,  Chun-Min Chang,  Yunqing Chen,  
 A. Chien,  K. D. Closser,  M. P. Coons,  S. Dasgupta,  A. L. Dempwolff,  
 M. Diedenhofen,  Hainam Do,  R. G. Edgar,  Po-Tung Fang,  S. Fatehi,  
 Qingguo Feng,  J. Fosso-Tande,  Qinghui Ge,  A. Ghysels,  G. Gidofalvi,  
 J. Gomes,  J. Gonthier,  A. Gunina,  M. W. D. Hanson-Heine,  
 P. H. P. Harbach,  A. W. Hauser,  J. E. Herr,  E. G. Hohenstein,  
 Z. C. Holden,  Kerwin Hui,  T.-C. Jagau,  Hyunjun Ji,  B. Kaduk,  
 K. Khistyaev,  Jaehoon Kim,  P. Klunzinger,  K. Koh,  D. Kosenkov,  
 L. Koulias,  T. Kowalczyk,  C. M. Krauter,  A. Kunitsa,  Ka Un Lao,  
 A. Laurent,  K. V. Lawler,  Joonho Lee,  D. Lefrancois,  S. Lehtola,  
 D. S. Levine,  Yi-Pei Li,  You-Sheng Lin,  Fenglai Liu,  E. Livshits,  
 A. Luenser,  P. Manohar,  E. Mansoor,  S. F. Manzer,  Shan-Ping Mao,  
 Yuezhi Mao,  N. Mardirossian,  A. V. Marenich,  T. Markovich,  
 L. A. Martinez-Martinez,  S. A. Maurer,  N. J. Mayhall,  S. C. McKenzie,  
 J.-M. Mewes,  A. F. Morrison,  J. W. Mullinax,  K. Nanda,  
 T. S. Nguyen-Beck,  R. Olivares-Amaya,  J. A. Parkhill,  T. M. Perrine,  
 F. Plasser,  S. Prager,  A. Prociuk,  E. Ramos,  D. R. Rehn,  F. Rob,  
 M. Schneider,  N. Sergueev,  S. M. Sharada,  S. Sharma,  D. W. Small,  
 T. Stauch,  T. Stein,  Yu-Chuan Su,  A. J. W. Thom,  A. Tkatchenko,  
 T. Tsuchimochi,  L. Vogt,  O. Vydrov,  M. A. Watson,  J. Wenzel,  
 M. de Wergifosse,  T. A. Wesolowski,  A. White,  J. Witte,  A. Yamada,  
 Jun Yang,  K. Yao,  S. Yeganeh,  S. R. Yost,  Zhi-Qiang You,  A. Zech,  
 Igor Ying Zhang,  Xing Zhang,  Yan Zhao,  Ying Zhu,  B. R. Brooks,  
 G. K. L. Chan,  C. J. Cramer,  M. S. Gordon,  W. J. Hehre,  A. Klamt,  
 M. W. Schmidt,  C. D. Sherrill,  D. G. Truhlar,  A. Aspuru-Guzik,  R. Baer,  
 A. T. Bell,  N. A. Besley,  Jeng-Da Chai,  R. A. DiStasio Jr.,  A. Dreuw,  
 B. D. Dunietz,  T. R. Furlani,  Chao-Ping Hsu,  Yousung Jung,  Jing Kong,  
 D. S. Lambrecht,  WanZhen Liang,  C. Ochsenfeld,  V. A. Rassolov,  
 L. V. Slipchenko,  J. E. Subotnik,  T. Van Voorhis,  J. M. Herbert,  
 A. I. Krylov,  P. M. W. Gill,  M. Head-Gordon

 Contributors to earlier versions of Q-Chem not listed above: 
 R. D. Adamson,  B. Austin,  J. Baker,  G. J. O. Beran,  K. Brandhorst,  
 S. T. Brown,  E. F. C. Byrd,  A. K. Chakraborty,  C.-L. Cheng,  
 Siu Hung Chien,  D. M. Chipman,  D. L. Crittenden,  H. Dachsel,  
 R. J. Doerksen,  A. D. Dutoi,  L. Fusti-Molnar,  W. A. Goddard III,  
 A. Golubeva-Zadorozhnaya,  S. R. Gwaltney,  G. Hawkins,  A. Heyden,  
 S. Hirata,  G. Kedziora,  F. J. Keil,  C. Kelley,  Jihan Kim,  R. A. King,  
 R. Z. Khaliullin,  P. P. Korambath,  W. Kurlancheek,  A. M. Lee,  M. S. Lee,  
 S. V. Levchenko,  Ching Yeh Lin,  D. Liotard,  R. C. Lochan,  I. Lotan,  
 P. E. Maslen,  N. Nair,  D. P. O'Neill,  D. Neuhauser,  E. Neuscamman,  
 C. M. Oana,  R. Olson,  B. Peters,  R. Peverati,  P. A. Pieniazek,  
 Y. M. Rhee,  J. Ritchie,  M. A. Rohrdanz,  E. Rosta,  N. J. Russ,  
 H. F. Schaefer III,  N. E. Schultz,  N. Shenvi,  A. C. Simmonett,  A. Sodt,  
 D. Stuck,  K. S. Thanthiriwatte,  V. Vanovschi,  Tao Wang,  A. Warshel,  
 C. F. Williams,  Q. Wu,  X. Xu,  W. Zhang

 Please cite Q-Chem as follows:
 Y. Shao et al., Mol. Phys. 113, 184-215 (2015)
 DOI: 10.1080/00268976.2014.952696

 Q-Chem 5.0.2 for Intel X86 EM64T Linux

 Parts of Q-Chem use Armadillo 5.200.1 (Boston Tea Smuggler).
 http://arma.sourceforge.net/

 Q-Chem begins on Mon Jun 18 12:22:43 2018  


Host: 0

     Scratch files written to /home/jcartus/scratch/Butadien_14.mol.dir//
 Using version located at /usr/local/qchem/bin/qchem

 Parallel job on  1  processors
Symmetry disabled for AIMD jobs.

Total Memory Limit in MB = 2000
Mega-Array Size in MB = 192

Checking the input file for inconsistencies... 	...done.
Finally everything over in PARseQInput

--------------------------------------------------------------
User input:
--------------------------------------------------------------
$rem
AIMD_STEPS                    400
FOCK_EXTRAP_POINTS            12
MAX_SCF_CYCLES                100
BASIS                         sto-3g
AIMD_INIT_VELOC               thermal
FOCK_EXTRAP_ORDER             6
AIMD_TEMP                     400
AIMD_METHOD                   bomd
TIME_STEP                     20
METHOD                        hf
JOBTYPE                       aimd
$end

$molecule
0 1
C    5.43576    0.89368    -0.00050
C    3.88199    -0.03085    -0.07752
H    5.93338    0.18965    0.65434
H    5.93493    1.80556    -0.48297
C    3.28911    0.96108    -0.98858
C    1.82681    0.73736    -1.23855
H    1.33234    -0.20869    -0.94333
H    1.45670    1.82619    -1.59966
H    3.57967    -0.91718    0.38862
H    3.60349    1.69453    -1.55856
$end


--------------------------------------------------------------
 ----------------------------------------------------------------
             Standard Nuclear Orientation (Angstroms)
    I     Atom           X                Y                Z
 ----------------------------------------------------------------
    1      C       5.4357600000     0.8936800000    -0.0005000000
    2      C       3.8819900000    -0.0308500000    -0.0775200000
    3      H       5.9333800000     0.1896500000     0.6543400000
    4      H       5.9349300000     1.8055600000    -0.4829700000
    5      C       3.2891100000     0.9610800000    -0.9885800000
    6      C       1.8268100000     0.7373600000    -1.2385500000
    7      H       1.3323400000    -0.2086900000    -0.9433300000
    8      H       1.4567000000     1.8261900000    -1.5996600000
    9      H       3.5796700000    -0.9171800000     0.3886200000
   10      H       3.6034900000     1.6945300000    -1.5585600000
 ----------------------------------------------------------------
 Nuclear Repulsion Energy =    97.3627244875 hartrees
 There are       15 alpha and       15 beta electrons
 Requested basis set is STO-3G
 There are 14 shells and 26 basis functions

 Total QAlloc Memory Limit   2000 MB
 Mega-Array Size       188 MB
 MEM_STATIC part       192 MB

finished with qalloc call

                       Distance Matrix (Angstroms)
             C (  1)   C (  2)   H (  3)   H (  4)   C (  5)   C (  6)
   C (  2)  1.809665
   H (  3)  1.082635  2.189164
   H (  4)  1.146069  2.784125  1.976017
   C (  5)  2.364096  1.471551  3.207250  2.822969
   C (  6)  3.818602  2.482318  4.554880  4.311450  1.500286
   H (  7)  4.352264  2.698512  4.886798  5.045094  2.280210  1.107550
   H (  8)  4.388600  3.412849  5.272518  4.615405  2.116497  1.205377
   H (  9)  2.622155  1.046071  2.614504  3.704083  2.347119  2.908213
   H ( 10)  2.534980  2.290847  3.548236  2.569987  0.980643  2.043324
             H (  7)   H (  8)   H (  9)
   H (  8)  2.141722
   H (  9)  2.706758  3.998292
   H ( 10)  3.026364  2.151216  3.257776

 Job number = 2, Threshold = 1.00E-11
Integral type ranges set in mkLRange.C for JobNum: 2  <1-6|1-6>
Symmetry turned off temporarily
 Using the largest function pair in Schwarz integrals
Total number of integrals generated =            3252
Symmetry turned back on
 A cutoff of  1.0D-11 yielded    102 shell pairs
 There are       372 function pairs
 Job number = 11, Threshold = 1.00E-11
Integral type ranges set in mkLRange.C for JobNum: 11  <1-6|7-7>
Total number of integrals generated =            3720
 Smallest overlap matrix eigenvalue = 2.17E-01
 Multipole matrices computed through 2nd order

 Scale SEOQF with 1.000000e-02/1.000000e-01/1.000000e+00

 Standard Electronic Orientation quadrupole field applied
 Nucleus-field energy     =    -0.0000000200 hartrees
 ENuRep (before)= 97.3627244875
 ENucField = -0.0000000200
 ENuRep (after) = 97.3627244675
 Guess from superposition of atomic densities
 Warning:  Energy on first SCF cycle will be non-variational
 SAD guess density has 30.000000 electrons

 ==================================================
    GEN_SCFMAN: A general SCF calculation manager  
                                                   
    Authors:                                       
        -- Eric Jon Sundstrom 2008-2014            
        -- Paul Horn 2010-2015                     
        -- Yuezhi Mao 2012-                        
        -- Dmitri Zuev 2014                        
        -- Alec White 2015-                        
        -- David Stuck 2015                        
        -- Shaama M.S. 2015                        
        -- Shane Yost 2015-                         
        -- Joonho Lee 2016-                        
        -- David Small 2016-                       
        -- Daniel Levine 2016-                     
        -- Susi Lehtola 2017-                      
        -- Hugh Burton 2017-                       
 ==================================================
 Hartree-Fock
Finding J and K together
 Job number = 22, Threshold = 1.00E-11
Integral type ranges set in mkLRange.C for JobNum: 22  <1-6|1-6>
 MakeJK  time:  CPU       0.11 s  wall       0.13 s
 A restricted SCF calculation will be
 performed using DIIS
 SCF converges when DIIS error is below 1.0e-08
 ---------------------------------------
  Cycle       Energy         DIIS error
 ---------------------------------------
Finding J and K together
 Job number = 22, Threshold = 1.00E-11
Integral type ranges set in mkLRange.C for JobNum: 22  <1-6|1-6>
 MakeJK  time:  CPU       0.15 s  wall       0.15 s
    1    -151.7497496688      1.68e-01  
Finding J and K together
 Job number = 22, Threshold = 1.00E-11
Integral type ranges set in mkLRange.C for JobNum: 22  <1-6|1-6>
 MakeJK  time:  CPU       0.16 s  wall       0.16 s
    2    -152.6271854935      1.43e-02  
Finding J and K together
 Job number = 22, Threshold = 1.00E-11
Integral type ranges set in mkLRange.C for JobNum: 22  <1-6|1-6>
 MakeJK  time:  CPU       0.16 s  wall       0.16 s
    3    -152.6574834757      7.06e-03  
Finding J and K together
 Job number = 22, Threshold = 1.00E-11
Integral type ranges set in mkLRange.C for JobNum: 22  <1-6|1-6>
 MakeJK  time:  CPU       0.19 s  wall       0.19 s
    4    -152.6611352667      5.17e-03  
Finding J and K together
 Job number = 22, Threshold = 1.00E-11
Integral type ranges set in mkLRange.C for JobNum: 22  <1-6|1-6>
 MakeJK  time:  CPU       0.18 s  wall       0.20 s
    5    -152.6643593176      1.25e-03  
Finding J and K together
 Job number = 22, Threshold = 1.00E-11
Integral type ranges set in mkLRange.C for JobNum: 22  <1-6|1-6>
 MakeJK  time:  CPU       0.18 s  wall       0.20 s
    6    -152.6645667854      2.79e-04  
Finding J and K together
 Job number = 22, Threshold = 1.00E-11
Integral type ranges set in mkLRange.C for JobNum: 22  <1-6|1-6>
 MakeJK  time:  CPU       0.14 s  wall       0.14 s
    7    -152.6645938076      1.03e-04  
Finding J and K together
 Job number = 22, Threshold = 1.00E-11
Integral type ranges set in mkLRange.C for JobNum: 22  <1-6|1-6>
 MakeJK  time:  CPU       0.15 s  wall       0.15 s
    8    -152.6645997946      5.04e-05  
Finding J and K together
 Job number = 22, Threshold = 1.00E-11
Integral type ranges set in mkLRange.C for JobNum: 22  <1-6|1-6>
 MakeJK  time:  CPU       0.14 s  wall       0.14 s
    9    -152.6646007374      3.39e-05  
Finding J and K together
 Job number = 22, Threshold = 1.00E-11
Integral type ranges set in mkLRange.C for JobNum: 22  <1-6|1-6>
 MakeJK  time:  CPU       0.18 s  wall       0.18 s
   10    -152.6646015087      1.87e-05  
Finding J and K together
 Job number = 22, Threshold = 1.00E-11
Integral type ranges set in mkLRange.C for JobNum: 22  <1-6|1-6>
 MakeJK  time:  CPU       0.18 s  wall       0.20 s
   11    -152.6646018024      4.63e-06  
Finding J and K together
 Job number = 22, Threshold = 1.00E-11
Integral type ranges set in mkLRange.C for JobNum: 22  <1-6|1-6>
 MakeJK  time:  CPU       0.18 s  wall       0.20 s
   12    -152.6646018126      1.36e-06  
Finding J and K together
 Job number = 22, Threshold = 1.00E-11
Integral type ranges set in mkLRange.C for JobNum: 22  <1-6|1-6>
 MakeJK  time:  CPU       0.19 s  wall       0.19 s
   13    -152.6646018134      2.29e-07  
Finding J and K together
 Job number = 22, Threshold = 1.00E-11
Integral type ranges set in mkLRange.C for JobNum: 22  <1-6|1-6>
 MakeJK  time:  CPU       0.19 s  wall       0.19 s
   14    -152.6646018134      4.45e-08  
Finding J and K together
 Job number = 22, Threshold = 1.00E-11
Integral type ranges set in mkLRange.C for JobNum: 22  <1-6|1-6>
 MakeJK  time:  CPU       0.18 s  wall       0.19 s
   15    -152.6646018134      1.41e-08  
   16    -152.6646018134      3.87e-09  Convergence criterion met
 ---------------------------------------
 SCF time:   CPU 2.72s  wall 3.00s 
 Total energy in the final basis set =     -152.6646018134
Wall  1 = 3
Clock 1 = 2.7242779732
 ==================================================
                  Done GEN_SCFMAN                  
 ==================================================

Symmetry turned off temporarily

 --------------------------------------------------------------

                    Orbital Energies (a.u.)
 --------------------------------------------------------------

 Alpha MOs
 -- Occupied --
-11.021 -11.010 -10.995 -10.978  -0.972  -0.846  -0.755  -0.717
 -0.577  -0.526  -0.491  -0.475  -0.321  -0.308  -0.144
 -- Virtual --
  0.170   0.332   0.390   0.548   0.588   0.649   0.731   0.798
  0.824   0.900   1.018
 --------------------------------------------------------------

          Ground-State Mulliken Net Atomic Charges

     Atom                 Charge (a.u.)
  ----------------------------------------
      1 C                    -0.123117
      2 C                    -0.063077
      3 H                     0.042912
      4 H                     0.077169
      5 C                    -0.077545
      6 C                    -0.122622
      7 H                     0.053607
      8 H                     0.034571
      9 H                     0.095426
     10 H                     0.082676
  ----------------------------------------
  Sum of atomic charges =     0.000000

 -----------------------------------------------------------------
                    Cartesian Multipole Moments
 -----------------------------------------------------------------
    Charge (ESU x 10^10)
                -0.0000
    Dipole Moment (Debye)
         X       0.4230      Y      -0.0773      Z       0.2267
       Tot       0.4861
    Quadrupole Moments (Debye-Ang)
        XX     -20.4253     XY       1.5019     YY     -21.5786
        XZ      -0.1105     YZ      -1.5564     ZZ     -24.7580
    Octopole Moments (Debye-Ang^2)
       XXX    -234.5866    XXY      -1.8250    XYY     -76.0851
       YYY     -43.1574    XXZ      10.1033    XYZ      -7.0873
       YYZ      10.6701    XZZ     -87.9746    YZZ     -14.6627
       ZZZ      43.3398
    Hexadecapole Moments (Debye-Ang^3)
      XXXX   -2017.9255   XXXY     -73.6956   XXYY    -331.7400
      XYYY    -154.5500   YYYY    -120.8286   XXXZ      69.1291
      XXYZ     -20.3791   XYYZ      21.2789   YYYZ      33.6366
      XXZZ    -387.5275   XYZZ     -53.7443   YYZZ     -37.9485
      XZZZ     101.8485   YZZZ      39.6439   ZZZZ    -128.0962
 -----------------------------------------------------------------
drvman_main.C: 73: calling DrvMan  Calculating analytic gradient of the SCF energy
drvman.C : 218: Calculating analytic gradient of the SCF energy
drvman.C: 244: calling SCF_Grad for normal SCF gradient
 Job number = 111, Threshold = 1.00E-11
Integral type ranges set in mkLRange.C for JobNum: 11  <1-6|7-7>
Finding J and K together
 ML is being used
 Job number = 122, Threshold = 1.00E-11
Integral type ranges set in mkLRange.C for JobNum: 22  <1-6|1-6>
Total number of integrals generated =           69978
 MakeJK  time:  CPU       0.49 s  wall       0.52 s
 Gradient of SCF Energy
            1           2           3           4           5           6
    1   0.1597642  -0.2556109  -0.0410634   0.0376772   0.2949327  -0.1541887
    2   0.1667687  -0.2675655  -0.0257269   0.0401230   0.2092274  -0.1166452
    3  -0.0317285   0.0907682  -0.0047052  -0.0151063  -0.0544901  -0.0006327
            7           8           9          10
    1   0.0066175   0.0132484   0.0087011  -0.0700781
    2  -0.0322833   0.0941255   0.0260143  -0.0940381
    3   0.0012682  -0.0104671  -0.0182463   0.0433399
 Max gradient component =       2.949E-01
 RMS gradient           =       1.159E-01
drvman.C: 248: out of SCF_Grad for normal SCF gradient
 Gradient time:  CPU 0.51 s  wall 0.54 s
 ------------------------------------------------------------------------------
                     drvman        : Timing summary (seconds)
 ------------------------------------------------------------------------------
     job step          cpu (% of tot)      sys (% of tot)     wall (% of tot)
 ------------------------------------------------------------------------------
 ------------------------------------------------------------------------------
   Grand Totals     0.5080E+00          0.2000E-05          0.5372E+00
 ------------------------------------------------------------------------------
drvman_main.C: 77: out of DrvMan =======================================================
            AB INITIO MOLECULAR DYNAMICS
=======================================================
Created directory /home/jcartus/scratch/Butadien_14.mol.dir/AIMD
AIMD will take 400 BOMD steps Velocity Verlet integration
Time step = 20.00000 a.u. ( = 0.48378 fs)
Total simulation time requested = 193.511 fs
Integral threshold = 10**(-11)
SCF convergence threshold = 10**(-8)
Generating viewable xyz trajectory,
 file (in Angstroms) at AIMD/View.xyz
Choosing nuclear velocities from Maxwell-Boltzmann
Velocities sampled from Maxwell-Boltzmann at T = 400.0 K
sqrt(kT/m) and (vx,vy,vz) for each atom:
  1   2.4064e-04  -1.61e-04   5.73e-04  -2.57e-04 
  2   2.4064e-04   4.75e-05   3.16e-04   1.93e-05 
  3   8.3036e-04  -5.15e-04   5.18e-05   3.52e-04 
  4   8.3036e-04  -3.92e-05  -3.29e-04   7.69e-04 
  5   2.4064e-04   2.26e-04  -1.36e-04   2.14e-04 
  6   2.4064e-04   1.69e-04  -4.91e-04  -1.74e-04 
  7   8.3036e-04   9.24e-04  -1.10e-03  -9.21e-05 
  8   8.3036e-04   1.27e-03  -1.27e-04  -1.63e-04 
  9   8.3036e-04  -8.07e-04  -1.43e-05  -1.24e-03 
 10   8.3036e-04   1.24e-04  -9.75e-04  -3.23e-04 
T(nuclear) = 0.01769073 a.u.
v(c.o.m.) = (  8.0435e-05,   1.1569e-05,  -5.6827e-05)
T(c.o.m.) = 4.84375e-04 a.u.
kT/2 = 0.000633 a.u.
Tx   = 0.004310 a.u.
Ty   = 0.009628 a.u.
Tz   = 0.003753 a.u.
Mean velocities (a.u.):   1.2422e-04  -2.2337e-04  -8.9204e-05
Removing c.o.m. velocity
T(nuclear) = 0.01810735 a.u.
v(c.o.m.) = (  5.6344e-21,   2.2538e-20,   1.1198e-20)
T(c.o.m.) = 3.27632e-35 a.u.
kT   = 0.001267 a.u. = 0.79 kcal/mol
Tx   = 0.004408 a.u. = 2.77 kcal/mol
Ty   = 0.009905 a.u. = 6.22 kcal/mol
Tz   = 0.003794 a.u. = 2.38 kcal/mol
Initial velocities in m/s
  1     -4.3152e+02      1.2417e+03     -5.0690e+02 
  2      2.4564e+01      6.8029e+02      9.8269e+01 
  3     -2.0700e+03     -2.2476e+01      1.4366e+03 
  4     -1.0293e+03     -8.5447e+02      2.3485e+03 
  5      4.1462e+02     -3.0930e+02      5.2516e+02 
  6      2.9137e+02     -1.0858e+03     -3.2490e+02 
  7      1.0776e+03     -2.5478e+03      4.6522e+02 
  8      1.8421e+03     -4.1365e+02      3.0987e+02 
  9     -2.7082e+03     -1.6709e+02     -2.0389e+03 
 10     -6.7278e+02     -2.2679e+03     -4.0312e+01 
----------------------------------------------------------------------------
       Nuclear coordinates (Angst) and velocities (a.u.)
----------------------------------------------------------------------------
             x        y        z            v_x         v_y        v_z
----------------------------------------------------------------------------
1      C    5.4358   0.8937  -0.0005    -1.9725e-04   5.6758e-04  -2.3170e-04
2      C    3.8820  -0.0308  -0.0775     1.1228e-05   3.1096e-04   4.4919e-05
3      H    5.9334   0.1897   0.6543    -9.4620e-04  -1.0274e-05   6.5667e-04
4      H    5.9349   1.8056  -0.4830    -4.7050e-04  -3.9058e-04   1.0735e-03
5      C    3.2891   0.9611  -0.9886     1.8952e-04  -1.4138e-04   2.4005e-04
6      C    1.8268   0.7374  -1.2386     1.3319e-04  -4.9632e-04  -1.4851e-04
7      H    1.3323  -0.2087  -0.9433     4.9258e-04  -1.1646e-03   2.1265e-04
8      H    1.4567   1.8262  -1.5997     8.4203e-04  -1.8908e-04   1.4164e-04
9      H    3.5797  -0.9172   0.3886    -1.2379e-03  -7.6377e-05  -9.3198e-04
10     H    3.6035   1.6945  -1.5586    -3.0753e-04  -1.0367e-03  -1.8427e-05
----------------------------------------------------------------------------
Write nuclear velocities every 1 time steps

TIME STEP #1 (t = 0.000 a.u. = 0.00000 fs)
--------------------------------------
 Instantaneous Temperature = 381.2 K
 ----------------------------------------------------------------
             Standard Nuclear Orientation (Angstroms)
    I     Atom           X                Y                Z
 ----------------------------------------------------------------
    1      C       5.4328994192     0.8988801621    -0.0027987379
    2      C       3.8833455504    -0.0262643751    -0.0774837580
    3      H       5.9257314861     0.1910233471     0.6615609718
    4      H       5.9277799409     1.7991148613    -0.4707383088
    5      C       3.2896888759     0.9585713877    -0.9857757466
    6      C       1.8289655892     0.7326714898    -1.2401187346
    7      H       1.3371720209    -0.2191559034    -0.9411524524
    8      H       1.4648484755     1.8187664685    -1.5975579122
    9      H       3.5660671825    -0.9194869771     0.3798074350
   10      H       3.6042722980     1.6889755709    -1.5612517526
 ----------------------------------------------------------------
 Nuclear Repulsion Energy =    97.5260639621 hartrees
 There are       15 alpha and       15 beta electrons

                       Distance Matrix (Angstroms)
             C (  1)   C (  2)   H (  3)   H (  4)   C (  5)   C (  6)
   C (  2)  1.806263
   H (  3)  1.088723  2.182829
   H (  4)  1.128848  2.768821  1.966739
   C (  5)  2.358635  1.465375  3.201807  2.816257
   C (  6)  3.814043  2.479553  4.548984  4.304594  1.499811
   H (  7)  4.348045  2.695576  4.877685  5.036704  2.280648  1.112303
   H (  8)  4.374343  3.400572  5.258578  4.603028  2.108140  1.199978
   H (  9)  2.633991  1.052439  2.623096  3.700258  2.338441  2.893322
   H ( 10)  2.529210  2.285060  3.545974  2.569054  0.981644  2.041901
             H (  7)   H (  8)   H (  9)
   H (  8)  2.144830
   H (  9)  2.683910  3.977829
   H ( 10)  3.027414  2.143665  3.251653

 Applying Cartesian multipole field
    Component          Value
    ---------          -----
     (2,0,0)        1.00000E-12
     (0,2,0)        2.00000E-11
     (0,0,2)       -3.00000E-10
 Nucleus-field energy     =    -0.0000000200 hartrees
 ENuRep (before)= 97.5260639621
 ENucField = -0.0000000200
 ENuRep (after) = 97.5260639421
 Job number = 2, Threshold = 1.00E-11
Integral type ranges set in mkLRange.C for JobNum: 2  <1-6|1-6>
Symmetry turned off temporarily
Symmetry turned back on
 Job number = 11, Threshold = 1.00E-11
Integral type ranges set in mkLRange.C for JobNum: 11  <1-6|7-7>
 Smallest overlap matrix eigenvalue = 2.17E-01
 Multipole matrices computed through 2nd order
 Guess from superposition of atomic densities
 Warning:  Energy on first SCF cycle will be non-variational
 SAD guess density has 30.000000 electrons
 SCF convergence criterion is 10**(-8)
 A restricted Hartree-Fock SCF calculation will be
 performed using Pulay DIIS extrapolation
 SCF converges when DIIS error is below 1.0E-08
Finding J and K together
 Job number = 22, Threshold = 1.00E-11
Integral type ranges set in mkLRange.C for JobNum: 22  <1-6|1-6>
 MakeJK  time:  CPU       0.15 s  wall       0.15 s
Fock build time:  0.15 s (CPU) 0.15 s (wall)
DIIS Errors:  Max 1.04E+00 RMS 1.68E-01

Current DIIS subspace size = 1
REM_GRID_RESTART_DIIS = 0

 ---------------------------------------
  Cycle       Energy         DIIS Error
 ---------------------------------------
    1    -151.7643765472      1.68E-01  00000
Finding J and K together
 Job number = 22, Threshold = 1.00E-11
Integral type ranges set in mkLRange.C for JobNum: 22  <1-6|1-6>
 MakeJK  time:  CPU       0.20 s  wall       0.21 s
Fock build time:  0.20 s (CPU) 0.21 s (wall)
DIIS Errors:  Max 7.43E-02 RMS 1.43E-02

Current DIIS subspace size = 2
REM_GRID_RESTART_DIIS = 0

    2    -152.6302538894      1.43E-02  00000
Finding J and K together
 Job number = 22, Threshold = 1.00E-11
Integral type ranges set in mkLRange.C for JobNum: 22  <1-6|1-6>
 MakeJK  time:  CPU       0.19 s  wall       0.19 s
Fock build time:  0.19 s (CPU) 0.19 s (wall)
DIIS Errors:  Max 3.95E-02 RMS 6.91E-03

Current DIIS subspace size = 3
REM_GRID_RESTART_DIIS = 0

    3    -152.6606486019      6.91E-03  00000
Finding J and K together
 Job number = 22, Threshold = 1.00E-11
Integral type ranges set in mkLRange.C for JobNum: 22  <1-6|1-6>
 MakeJK  time:  CPU       0.19 s  wall       0.20 s
Fock build time:  0.19 s (CPU) 0.21 s (wall)
DIIS Errors:  Max 3.17E-02 RMS 5.10E-03

Current DIIS subspace size = 4
REM_GRID_RESTART_DIIS = 0

    4    -152.6641747030      5.10E-03  00000
Finding J and K together
 Job number = 22, Threshold = 1.00E-11
Integral type ranges set in mkLRange.C for JobNum: 22  <1-6|1-6>
 MakeJK  time:  CPU       0.19 s  wall       0.19 s
Fock build time:  0.19 s (CPU) 0.19 s (wall)
DIIS Errors:  Max 6.79E-03 RMS 1.24E-03

Current DIIS subspace size = 5
REM_GRID_RESTART_DIIS = 0

    5    -152.6673025663      1.24E-03  00000
Finding J and K together
 Job number = 22, Threshold = 1.00E-11
Integral type ranges set in mkLRange.C for JobNum: 22  <1-6|1-6>
 MakeJK  time:  CPU       0.18 s  wall       0.18 s
Fock build time:  0.18 s (CPU) 0.18 s (wall)
DIIS Errors:  Max 1.78E-03 RMS 2.76E-04

Current DIIS subspace size = 6
REM_GRID_RESTART_DIIS = 0

    6    -152.6675074553      2.76E-04  00000
Finding J and K together
 Job number = 22, Threshold = 1.00E-11
Integral type ranges set in mkLRange.C for JobNum: 22  <1-6|1-6>
 MakeJK  time:  CPU       0.18 s  wall       0.18 s
Fock build time:  0.19 s (CPU) 0.19 s (wall)
DIIS Errors:  Max 7.46E-04 RMS 9.49E-05

Current DIIS subspace size = 7
REM_GRID_RESTART_DIIS = 0

    7    -152.6675334807      9.49E-05  00000
Finding J and K together
 Job number = 22, Threshold = 1.00E-11
Integral type ranges set in mkLRange.C for JobNum: 22  <1-6|1-6>
 MakeJK  time:  CPU       0.19 s  wall       0.19 s
Fock build time:  0.19 s (CPU) 0.19 s (wall)
DIIS Errors:  Max 3.62E-04 RMS 3.77E-05

Current DIIS subspace size = 8
REM_GRID_RESTART_DIIS = 0

    8    -152.6675386865      3.77E-05  00000
Finding J and K together
 Job number = 22, Threshold = 1.00E-11
Integral type ranges set in mkLRange.C for JobNum: 22  <1-6|1-6>
 MakeJK  time:  CPU       0.19 s  wall       0.19 s
Fock build time:  0.19 s (CPU) 0.19 s (wall)
DIIS Errors:  Max 2.64E-04 RMS 2.31E-05

Current DIIS subspace size = 9
REM_GRID_RESTART_DIIS = 0

    9    -152.6675392011      2.31E-05  00000
Finding J and K together
 Job number = 22, Threshold = 1.00E-11
Integral type ranges set in mkLRange.C for JobNum: 22  <1-6|1-6>
 MakeJK  time:  CPU       0.19 s  wall       0.19 s
Fock build time:  0.19 s (CPU) 0.19 s (wall)
DIIS Errors:  Max 1.65E-04 RMS 1.45E-05

Current DIIS subspace size = 10
REM_GRID_RESTART_DIIS = 0

   10    -152.6675394885      1.45E-05  00000
Finding J and K together
 Job number = 22, Threshold = 1.00E-11
Integral type ranges set in mkLRange.C for JobNum: 22  <1-6|1-6>
 MakeJK  time:  CPU       0.20 s  wall       0.19 s
Fock build time:  0.20 s (CPU) 0.19 s (wall)
DIIS Errors:  Max 3.45E-05 RMS 4.46E-06

Current DIIS subspace size = 11
REM_GRID_RESTART_DIIS = 0

   11    -152.6675396536      4.46E-06  00000
Finding J and K together
 Job number = 22, Threshold = 1.00E-11
Integral type ranges set in mkLRange.C for JobNum: 22  <1-6|1-6>
 MakeJK  time:  CPU       0.19 s  wall       0.19 s
Fock build time:  0.19 s (CPU) 0.19 s (wall)
DIIS Errors:  Max 1.21E-05 RMS 1.32E-06

Current DIIS subspace size = 12
REM_GRID_RESTART_DIIS = 0

   12    -152.6675396642      1.32E-06  00000
Finding J and K together
 Job number = 22, Threshold = 1.00E-11
Integral type ranges set in mkLRange.C for JobNum: 22  <1-6|1-6>
 MakeJK  time:  CPU       0.20 s  wall       0.19 s
Fock build time:  0.20 s (CPU) 0.20 s (wall)
DIIS Errors:  Max 1.45E-06 RMS 2.37E-07

Current DIIS subspace size = 13
REM_GRID_RESTART_DIIS = 0

   13    -152.6675396650      2.37E-07  00000
Finding J and K together
 Job number = 22, Threshold = 1.00E-11
Integral type ranges set in mkLRange.C for JobNum: 22  <1-6|1-6>
 MakeJK  time:  CPU       0.19 s  wall       0.19 s
Fock build time:  0.19 s (CPU) 0.19 s (wall)
DIIS Errors:  Max 3.76E-07 RMS 6.10E-08

Current DIIS subspace size = 14
REM_GRID_RESTART_DIIS = 0

   14    -152.6675396651      6.10E-08  00000
Finding J and K together
 Job number = 22, Threshold = 1.00E-11
Integral type ranges set in mkLRange.C for JobNum: 22  <1-6|1-6>
 MakeJK  time:  CPU       0.19 s  wall       0.19 s
Fock build time:  0.19 s (CPU) 0.19 s (wall)
DIIS Errors:  Max 2.40E-07 RMS 3.19E-08

Current DIIS subspace size = 15
REM_GRID_RESTART_DIIS = 0

   15    -152.6675396651      3.19E-08  00000
Finding J and K together
 Job number = 22, Threshold = 1.00E-11
Integral type ranges set in mkLRange.C for JobNum: 22  <1-6|1-6>
 MakeJK  time:  CPU       0.19 s  wall       0.19 s
Fock build time:  0.19 s (CPU) 0.19 s (wall)
DIIS Errors:  Max 1.40E-07 RMS 1.53E-08

Current DIIS subspace size = 15
REM_GRID_RESTART_DIIS = 0

   16    -152.6675396651      1.53E-08  00000
Finding J and K together
 Job number = 22, Threshold = 1.00E-11
Integral type ranges set in mkLRange.C for JobNum: 22  <1-6|1-6>
 MakeJK  time:  CPU       0.18 s  wall       0.20 s
Fock build time:  0.18 s (CPU) 0.20 s (wall)
DIIS Errors:  Max 4.80E-08 RMS 5.82E-09

Current DIIS subspace size = 15
REM_GRID_RESTART_DIIS = 0

   17    -152.6675396651      5.82E-09  00000 Convergence criterion met
 ---------------------------------------
 SCF time:  CPU 3.20 s  wall 3.29 s
 SCF   energy in the final basis set = -152.66753967
 Total energy in the final basis set = -152.66753967
drvman_main.C: 73: calling DrvMan  Calculating analytic gradient of the SCF energy
drvman.C : 218: Calculating analytic gradient of the SCF energy
drvman.C: 244: calling SCF_Grad for normal SCF gradient
 Job number = 111, Threshold = 1.00E-11
Integral type ranges set in mkLRange.C for JobNum: 11  <1-6|7-7>
Finding J and K together
 ML is being used
 Job number = 122, Threshold = 1.00E-11
Integral type ranges set in mkLRange.C for JobNum: 22  <1-6|1-6>
 MakeJK  time:  CPU       0.45 s  wall       0.48 s
 Gradient of SCF Energy
            1           2           3           4           5           6
    1   0.1601748  -0.2526642  -0.0389284   0.0334800   0.2941407  -0.1536234
    2   0.1817725  -0.2600421  -0.0297704   0.0302552   0.2050490  -0.1110277
    3  -0.0420583   0.0861829  -0.0013492  -0.0095861  -0.0499527  -0.0035883
            7           8           9          10
    1   0.0056142   0.0154246   0.0057218  -0.0693401
    2  -0.0358240   0.0919810   0.0205358  -0.0929292
    3   0.0024811  -0.0092941  -0.0155522   0.0427167
 Max gradient component =       2.941E-01
 RMS gradient           =       1.150E-01
drvman.C: 248: out of SCF_Grad for normal SCF gradient
 Gradient time:  CPU 0.47 s  wall 0.49 s
 ------------------------------------------------------------------------------
                     drvman        : Timing summary (seconds)
 ------------------------------------------------------------------------------
     job step          cpu (% of tot)      sys (% of tot)     wall (% of tot)
 ------------------------------------------------------------------------------
 ------------------------------------------------------------------------------
   Grand Totals     0.4680E+00          0.2000E-05          0.4906E+00
 ------------------------------------------------------------------------------
drvman_main.C: 77: out of DrvMan  Time for this dynamics step: 3.7 s (CPU) 3.8 s (wall)

TIME STEP #2 (t = 20.000 a.u. = 0.48378 fs)
--------------------------------------
 Instantaneous Temperature = 441.6 K
 ----------------------------------------------------------------
             Standard Nuclear Orientation (Angstroms)
    I     Atom           X                Y                Z
 ----------------------------------------------------------------
    1      C       5.4284889019     0.9023213968    -0.0046904976
    2      C       3.8871460139    -0.0191624443    -0.0782814682
    3      H       5.9225681589     0.1958267230     0.6689373973
    4      H       5.9167724427     1.7891838345    -0.4574021476
    5      C       3.2874214897     0.9540786119    -0.9824881246
    6      C       1.8326077205     0.7290573431    -1.2416527467
    7      H       1.3413571912    -0.2254942951    -0.9392607695
    8      H       1.4712197878     1.8007452340    -1.5943849973
    9      H       3.5518051156    -0.9241600082     0.3727867355
   10      H       3.6130437041     1.6941280932    -1.5688651681
 ----------------------------------------------------------------
 Nuclear Repulsion Energy =    97.7377003186 hartrees
 There are       15 alpha and       15 beta electrons

                       Distance Matrix (Angstroms)
             C (  1)   C (  2)   H (  3)   H (  4)   C (  5)   C (  6)
   C (  2)  1.797300
   H (  3)  1.094086  2.178876
   H (  4)  1.109006  2.744673  1.951272
   C (  5)  2.354344  1.457552  3.200961  2.808310
   C (  6)  3.806633  2.476771  4.545599  4.291773  1.494752
   H (  7)  4.341663  2.695348  4.873531  5.022503  2.276055  1.115319
   H (  8)  4.358242  3.383391  5.245273  4.588660  2.095197  1.184709
   H (  9)  2.645839  1.065334  2.638673  3.693849  2.331190  2.880136
   H ( 10)  2.523775  2.287430  3.547756  2.559600  0.998770  2.051434
             H (  7)   H (  8)   H (  9)
   H (  8)  2.133471
   H (  9)  2.663772  3.952684
   H ( 10)  3.040051  2.144628  3.260245

 Applying Cartesian multipole field
    Component          Value
    ---------          -----
     (2,0,0)        1.00000E-12
     (0,2,0)        2.00000E-11
     (0,0,2)       -3.00000E-10
 Nucleus-field energy     =    -0.0000000200 hartrees
 ENuRep (before)= 97.7377003186
 ENucField = -0.0000000200
 ENuRep (after) = 97.7377002986
 Job number = 2, Threshold = 1.00E-11
Integral type ranges set in mkLRange.C for JobNum: 2  <1-6|1-6>
Symmetry turned off temporarily
Symmetry turned back on
 Job number = 11, Threshold = 1.00E-11
Integral type ranges set in mkLRange.C for JobNum: 11  <1-6|7-7>
 Smallest overlap matrix eigenvalue = 2.21E-01
 Multipole matrices computed through 2nd order
 Guess from superposition of atomic densities
 Warning:  Energy on first SCF cycle will be non-variational
 SAD guess density has 30.000000 electrons
 SCF convergence criterion is 10**(-8)
 A restricted Hartree-Fock SCF calculation will be
 performed using Pulay DIIS extrapolation
 SCF converges when DIIS error is below 1.0E-08
Finding J and K together
 Job number = 22, Threshold = 1.00E-11
Integral type ranges set in mkLRange.C for JobNum: 22  <1-6|1-6>
 MakeJK  time:  CPU       0.14 s  wall       0.14 s
Fock build time:  0.14 s (CPU) 0.14 s (wall)
DIIS Errors:  Max 1.01E+00 RMS 1.69E-01

Current DIIS subspace size = 1
REM_GRID_RESTART_DIIS = 0

 ---------------------------------------
  Cycle       Energy         DIIS Error
 ---------------------------------------
    1    -151.7822614252      1.69E-01  00000
Finding J and K together
 Job number = 22, Threshold = 1.00E-11
Integral type ranges set in mkLRange.C for JobNum: 22  <1-6|1-6>
 MakeJK  time:  CPU       0.18 s  wall       0.19 s
Fock build time:  0.18 s (CPU) 0.19 s (wall)
DIIS Errors:  Max 7.43E-02 RMS 1.42E-02

Current DIIS subspace size = 2
REM_GRID_RESTART_DIIS = 0

    2    -152.6453581712      1.42E-02  00000
Finding J and K together
 Job number = 22, Threshold = 1.00E-11
Integral type ranges set in mkLRange.C for JobNum: 22  <1-6|1-6>
 MakeJK  time:  CPU       0.18 s  wall       0.18 s
Fock build time:  0.18 s (CPU) 0.18 s (wall)
DIIS Errors:  Max 3.68E-02 RMS 6.64E-03

Current DIIS subspace size = 3
REM_GRID_RESTART_DIIS = 0

    3    -152.6758475243      6.64E-03  00000
Finding J and K together
 Job number = 22, Threshold = 1.00E-11
Integral type ranges set in mkLRange.C for JobNum: 22  <1-6|1-6>
 MakeJK  time:  CPU       0.18 s  wall       0.18 s
Fock build time:  0.18 s (CPU) 0.18 s (wall)
DIIS Errors:  Max 3.03E-02 RMS 4.88E-03

Current DIIS subspace size = 4
REM_GRID_RESTART_DIIS = 0

    4    -152.6792488460      4.88E-03  00000
Finding J and K together
 Job number = 22, Threshold = 1.00E-11
Integral type ranges set in mkLRange.C for JobNum: 22  <1-6|1-6>
 MakeJK  time:  CPU       0.14 s  wall       0.14 s
Fock build time:  0.14 s (CPU) 0.14 s (wall)
DIIS Errors:  Max 6.45E-03 RMS 1.22E-03

Current DIIS subspace size = 5
REM_GRID_RESTART_DIIS = 0

    5    -152.6821068546      1.22E-03  00000
Finding J and K together
 Job number = 22, Threshold = 1.00E-11
Integral type ranges set in mkLRange.C for JobNum: 22  <1-6|1-6>
 MakeJK  time:  CPU       0.14 s  wall       0.14 s
Fock build time:  0.14 s (CPU) 0.14 s (wall)
DIIS Errors:  Max 1.75E-03 RMS 2.69E-04

Current DIIS subspace size = 6
REM_GRID_RESTART_DIIS = 0

    6    -152.6823053852      2.69E-04  00000
Finding J and K together
 Job number = 22, Threshold = 1.00E-11
Integral type ranges set in mkLRange.C for JobNum: 22  <1-6|1-6>
 MakeJK  time:  CPU       0.13 s  wall       0.13 s
Fock build time:  0.13 s (CPU) 0.13 s (wall)
DIIS Errors:  Max 7.27E-04 RMS 8.87E-05

Current DIIS subspace size = 7
REM_GRID_RESTART_DIIS = 0

    7    -152.6823299017      8.87E-05  00000
Finding J and K together
 Job number = 22, Threshold = 1.00E-11
Integral type ranges set in mkLRange.C for JobNum: 22  <1-6|1-6>
 MakeJK  time:  CPU       0.13 s  wall       0.13 s
Fock build time:  0.13 s (CPU) 0.13 s (wall)
DIIS Errors:  Max 2.08E-04 RMS 2.71E-05

Current DIIS subspace size = 8
REM_GRID_RESTART_DIIS = 0

    8    -152.6823344514      2.71E-05  00000
Finding J and K together
 Job number = 22, Threshold = 1.00E-11
Integral type ranges set in mkLRange.C for JobNum: 22  <1-6|1-6>
 MakeJK  time:  CPU       0.14 s  wall       0.14 s
Fock build time:  0.14 s (CPU) 0.14 s (wall)
DIIS Errors:  Max 1.46E-04 RMS 1.31E-05

Current DIIS subspace size = 9
REM_GRID_RESTART_DIIS = 0

    9    -152.6823347312      1.31E-05  00000
Finding J and K together
 Job number = 22, Threshold = 1.00E-11
Integral type ranges set in mkLRange.C for JobNum: 22  <1-6|1-6>
 MakeJK  time:  CPU       0.16 s  wall       0.16 s
Fock build time:  0.16 s (CPU) 0.16 s (wall)
DIIS Errors:  Max 9.86E-05 RMS 8.52E-06

Current DIIS subspace size = 10
REM_GRID_RESTART_DIIS = 0

   10    -152.6823348107      8.52E-06  00000
Finding J and K together
 Job number = 22, Threshold = 1.00E-11
Integral type ranges set in mkLRange.C for JobNum: 22  <1-6|1-6>
 MakeJK  time:  CPU       0.12 s  wall       0.12 s
Fock build time:  0.12 s (CPU) 0.12 s (wall)
DIIS Errors:  Max 3.30E-05 RMS 3.51E-06

Current DIIS subspace size = 11
REM_GRID_RESTART_DIIS = 0

   11    -152.6823348608      3.51E-06  00000
Finding J and K together
 Job number = 22, Threshold = 1.00E-11
Integral type ranges set in mkLRange.C for JobNum: 22  <1-6|1-6>
 MakeJK  time:  CPU       0.12 s  wall       0.12 s
Fock build time:  0.12 s (CPU) 0.12 s (wall)
DIIS Errors:  Max 9.80E-06 RMS 1.16E-06

Current DIIS subspace size = 12
REM_GRID_RESTART_DIIS = 0

   12    -152.6823348678      1.16E-06  00000
Finding J and K together
 Job number = 22, Threshold = 1.00E-11
Integral type ranges set in mkLRange.C for JobNum: 22  <1-6|1-6>
 MakeJK  time:  CPU       0.12 s  wall       0.12 s
Fock build time:  0.12 s (CPU) 0.12 s (wall)
DIIS Errors:  Max 1.56E-06 RMS 2.30E-07

Current DIIS subspace size = 13
REM_GRID_RESTART_DIIS = 0

   13    -152.6823348684      2.30E-07  00000
Finding J and K together
 Job number = 22, Threshold = 1.00E-11
Integral type ranges set in mkLRange.C for JobNum: 22  <1-6|1-6>
 MakeJK  time:  CPU       0.17 s  wall       0.17 s
Fock build time:  0.17 s (CPU) 0.17 s (wall)
DIIS Errors:  Max 3.67E-07 RMS 5.56E-08

Current DIIS subspace size = 14
REM_GRID_RESTART_DIIS = 0

   14    -152.6823348684      5.56E-08  00000
Finding J and K together
 Job number = 22, Threshold = 1.00E-11
Integral type ranges set in mkLRange.C for JobNum: 22  <1-6|1-6>
 MakeJK  time:  CPU       0.15 s  wall       0.15 s
Fock build time:  0.15 s (CPU) 0.15 s (wall)
DIIS Errors:  Max 2.27E-07 RMS 3.02E-08

Current DIIS subspace size = 15
REM_GRID_RESTART_DIIS = 0

   15    -152.6823348684      3.02E-08  00000
Finding J and K together
 Job number = 22, Threshold = 1.00E-11
Integral type ranges set in mkLRange.C for JobNum: 22  <1-6|1-6>
 MakeJK  time:  CPU       0.16 s  wall       0.16 s
Fock build time:  0.16 s (CPU) 0.16 s (wall)
DIIS Errors:  Max 1.17E-07 RMS 1.36E-08

Current DIIS subspace size = 15
REM_GRID_RESTART_DIIS = 0

   16    -152.6823348684      1.36E-08  00000
Finding J and K together
 Job number = 22, Threshold = 1.00E-11
Integral type ranges set in mkLRange.C for JobNum: 22  <1-6|1-6>
 MakeJK  time:  CPU       0.15 s  wall       0.15 s
Fock build time:  0.15 s (CPU) 0.15 s (wall)
DIIS Errors:  Max 3.39E-08 RMS 4.47E-09

Current DIIS subspace size = 15
REM_GRID_RESTART_DIIS = 0

   17    -152.6823348684      4.47E-09  00000 Convergence criterion met
 ---------------------------------------
 SCF time:  CPU 2.54 s  wall 2.57 s
 SCF   energy in the final basis set = -152.68233487
 Total energy in the final basis set = -152.68233487
drvman_main.C: 73: calling DrvMan  Calculating analytic gradient of the SCF energy
drvman.C : 218: Calculating analytic gradient of the SCF energy
drvman.C: 244: calling SCF_Grad for normal SCF gradient
 Job number = 111, Threshold = 1.00E-11
Integral type ranges set in mkLRange.C for JobNum: 11  <1-6|7-7>
Finding J and K together
 ML is being used
 Job number = 122, Threshold = 1.00E-11
Integral type ranges set in mkLRange.C for JobNum: 22  <1-6|1-6>
 MakeJK  time:  CPU       0.40 s  wall       0.40 s
 Gradient of SCF Energy
            1           2           3           4           5           6
    1   0.1622442  -0.2479579  -0.0361558   0.0280341   0.2827824  -0.1518987
    2   0.1981757  -0.2445897  -0.0327929   0.0177184   0.1802365  -0.1008753
    3  -0.0528391   0.0770911   0.0017756  -0.0027337  -0.0305283  -0.0077796
            7           8           9          10
    1   0.0046645   0.0181094   0.0004263  -0.0602487
    2  -0.0380726   0.0850920   0.0096601  -0.0745521
    3   0.0033695  -0.0065647  -0.0104006   0.0286098
 Max gradient component =       2.828E-01
 RMS gradient           =       1.103E-01
drvman.C: 248: out of SCF_Grad for normal SCF gradient
 Gradient time:  CPU 0.42 s  wall 0.42 s
 ------------------------------------------------------------------------------
                     drvman        : Timing summary (seconds)
 ------------------------------------------------------------------------------
     job step          cpu (% of tot)      sys (% of tot)     wall (% of tot)
 ------------------------------------------------------------------------------
 ------------------------------------------------------------------------------
   Grand Totals     0.4160E+00          0.1000E-05          0.4175E+00
 ------------------------------------------------------------------------------
drvman_main.C: 77: out of DrvMan  Time for this dynamics step: 3.0 s (CPU) 3.0 s (wall)

TIME STEP #3 (t = 40.000 a.u. = 0.96755 fs)
--------------------------------------
 Instantaneous Temperature = 747.4 K
 ----------------------------------------------------------------
             Standard Nuclear Orientation (Angstroms)
    I     Atom           X                Y                Z
 ----------------------------------------------------------------
    1      C       5.4225084231     0.9038449781    -0.0060709585
    2      C       3.8933458506    -0.0096937335    -0.0798251533
    3      H       5.9235705679     0.2044083736     0.6761092484
    4      H       5.9025349578     1.7772113625    -0.4437510143
    5      C       3.2824177500     0.9478417715    -0.9789050947
    6      C       1.8377197045     0.7264193198    -1.2431114797
    7      H       1.3450049301    -0.2274461015    -0.9377573079
    8      H       1.4755045982     1.7729200220    -1.5904557187
    9      H       3.5374939270    -0.9299460415     0.3669643544
   10      H       3.6287567344     1.7078702345    -1.5797748932
 ----------------------------------------------------------------
 Nuclear Repulsion Energy =    98.0158406737 hartrees
 There are       15 alpha and       15 beta electrons

                       Distance Matrix (Angstroms)
             C (  1)   C (  2)   H (  3)   H (  4)   C (  5)   C (  6)
   C (  2)  1.782787
   H (  3)  1.098019  2.176945
   H (  4)  1.088466  2.713358  1.930865
   C (  5)  2.351240  1.448604  3.204287  2.799867
   C (  6)  3.796374  2.474004  4.544236  4.273858  1.485256
   H (  7)  4.332885  2.697685  4.873841  5.003376  2.266399  1.116185
   H (  8)  4.341014  3.362391  5.232861  4.573133  2.078385  1.160608
   H (  9)  2.656167  1.083105  2.660017  3.685021  2.324331  2.867947
   H ( 10)  2.518044  2.295622  3.551842  2.542720  1.028902  2.069880
             H (  7)   H (  8)   H (  9)
   H (  8)  2.108201
   H (  9)  2.646283  3.922853
   H ( 10)  3.061561  2.154261  3.279664

 Applying Cartesian multipole field
    Component          Value
    ---------          -----
     (2,0,0)        1.00000E-12
     (0,2,0)        2.00000E-11
     (0,0,2)       -3.00000E-10
 Nucleus-field energy     =    -0.0000000200 hartrees
 ENuRep (before)= 98.0158406737
 ENucField = -0.0000000200
 ENuRep (after) = 98.0158406537
 Job number = 2, Threshold = 1.00E-11
Integral type ranges set in mkLRange.C for JobNum: 2  <1-6|1-6>
Symmetry turned off temporarily
Symmetry turned back on
 Job number = 11, Threshold = 1.00E-11
Integral type ranges set in mkLRange.C for JobNum: 11  <1-6|7-7>
 Smallest overlap matrix eigenvalue = 2.23E-01
 Multipole matrices computed through 2nd order
 Guess from superposition of atomic densities
 Warning:  Energy on first SCF cycle will be non-variational
 SAD guess density has 30.000000 electrons
 SCF convergence criterion is 10**(-8)
 A restricted Hartree-Fock SCF calculation will be
 performed using Pulay DIIS extrapolation
 SCF converges when DIIS error is below 1.0E-08
Finding J and K together
 Job number = 22, Threshold = 1.00E-11
Integral type ranges set in mkLRange.C for JobNum: 22  <1-6|1-6>
 MakeJK  time:  CPU       0.11 s  wall       0.11 s
Fock build time:  0.11 s (CPU) 0.11 s (wall)
DIIS Errors:  Max 9.62E-01 RMS 1.70E-01

Current DIIS subspace size = 1
REM_GRID_RESTART_DIIS = 0

 ---------------------------------------
  Cycle       Energy         DIIS Error
 ---------------------------------------
    1    -151.8071700655      1.70E-01  00000
Finding J and K together
 Job number = 22, Threshold = 1.00E-11
Integral type ranges set in mkLRange.C for JobNum: 22  <1-6|1-6>
 MakeJK  time:  CPU       0.17 s  wall       0.17 s
Fock build time:  0.17 s (CPU) 0.17 s (wall)
DIIS Errors:  Max 7.40E-02 RMS 1.42E-02

Current DIIS subspace size = 2
REM_GRID_RESTART_DIIS = 0

    2    -152.6683984260      1.42E-02  00000
Finding J and K together
 Job number = 22, Threshold = 1.00E-11
Integral type ranges set in mkLRange.C for JobNum: 22  <1-6|1-6>
 MakeJK  time:  CPU       0.14 s  wall       0.14 s
Fock build time:  0.14 s (CPU) 0.14 s (wall)
DIIS Errors:  Max 3.52E-02 RMS 6.29E-03

Current DIIS subspace size = 3
REM_GRID_RESTART_DIIS = 0

    3    -152.6989426871      6.29E-03  00000
Finding J and K together
 Job number = 22, Threshold = 1.00E-11
Integral type ranges set in mkLRange.C for JobNum: 22  <1-6|1-6>
 MakeJK  time:  CPU       0.14 s  wall       0.14 s
Fock build time:  0.14 s (CPU) 0.14 s (wall)
DIIS Errors:  Max 2.78E-02 RMS 4.52E-03

Current DIIS subspace size = 4
REM_GRID_RESTART_DIIS = 0

    4    -152.7022418734      4.52E-03  00000
Finding J and K together
 Job number = 22, Threshold = 1.00E-11
Integral type ranges set in mkLRange.C for JobNum: 22  <1-6|1-6>
 MakeJK  time:  CPU       0.14 s  wall       0.14 s
Fock build time:  0.14 s (CPU) 0.14 s (wall)
DIIS Errors:  Max 5.80E-03 RMS 1.18E-03

Current DIIS subspace size = 5
REM_GRID_RESTART_DIIS = 0

    5    -152.7046860819      1.18E-03  00000
Finding J and K together
 Job number = 22, Threshold = 1.00E-11
Integral type ranges set in mkLRange.C for JobNum: 22  <1-6|1-6>
 MakeJK  time:  CPU       0.19 s  wall       0.19 s
Fock build time:  0.19 s (CPU) 0.19 s (wall)
DIIS Errors:  Max 1.69E-03 RMS 2.60E-04

Current DIIS subspace size = 6
REM_GRID_RESTART_DIIS = 0

    6    -152.7048709489      2.60E-04  00000
Finding J and K together
 Job number = 22, Threshold = 1.00E-11
Integral type ranges set in mkLRange.C for JobNum: 22  <1-6|1-6>
 MakeJK  time:  CPU       0.19 s  wall       0.20 s
Fock build time:  0.19 s (CPU) 0.20 s (wall)
DIIS Errors:  Max 6.88E-04 RMS 8.38E-05

Current DIIS subspace size = 7
REM_GRID_RESTART_DIIS = 0

    7    -152.7048934456      8.38E-05  00000
Finding J and K together
 Job number = 22, Threshold = 1.00E-11
Integral type ranges set in mkLRange.C for JobNum: 22  <1-6|1-6>
 MakeJK  time:  CPU       0.16 s  wall       0.16 s
Fock build time:  0.16 s (CPU) 0.16 s (wall)
DIIS Errors:  Max 1.19E-04 RMS 2.09E-05

Current DIIS subspace size = 8
REM_GRID_RESTART_DIIS = 0

    8    -152.7048974015      2.09E-05  00000
Finding J and K together
 Job number = 22, Threshold = 1.00E-11
Integral type ranges set in mkLRange.C for JobNum: 22  <1-6|1-6>
 MakeJK  time:  CPU       0.19 s  wall       0.19 s
Fock build time:  0.19 s (CPU) 0.19 s (wall)
DIIS Errors:  Max 5.04E-05 RMS 7.23E-06

Current DIIS subspace size = 9
REM_GRID_RESTART_DIIS = 0

    9    -152.7048975846      7.23E-06  00000
Finding J and K together
 Job number = 22, Threshold = 1.00E-11
Integral type ranges set in mkLRange.C for JobNum: 22  <1-6|1-6>
 MakeJK  time:  CPU       0.14 s  wall       0.14 s
Fock build time:  0.14 s (CPU) 0.14 s (wall)
DIIS Errors:  Max 3.41E-05 RMS 4.03E-06

Current DIIS subspace size = 10
REM_GRID_RESTART_DIIS = 0

   10    -152.7048976114      4.03E-06  00000
Finding J and K together
 Job number = 22, Threshold = 1.00E-11
Integral type ranges set in mkLRange.C for JobNum: 22  <1-6|1-6>
 MakeJK  time:  CPU       0.13 s  wall       0.13 s
Fock build time:  0.13 s (CPU) 0.13 s (wall)
DIIS Errors:  Max 1.36E-05 RMS 1.84E-06

Current DIIS subspace size = 11
REM_GRID_RESTART_DIIS = 0

   11    -152.7048976246      1.84E-06  00000
Finding J and K together
 Job number = 22, Threshold = 1.00E-11
Integral type ranges set in mkLRange.C for JobNum: 22  <1-6|1-6>
 MakeJK  time:  CPU       0.18 s  wall       0.18 s
Fock build time:  0.18 s (CPU) 0.18 s (wall)
DIIS Errors:  Max 5.87E-06 RMS 7.32E-07

Current DIIS subspace size = 12
REM_GRID_RESTART_DIIS = 0

   12    -152.7048976273      7.32E-07  00000
Finding J and K together
 Job number = 22, Threshold = 1.00E-11
Integral type ranges set in mkLRange.C for JobNum: 22  <1-6|1-6>
 MakeJK  time:  CPU       0.19 s  wall       0.19 s
Fock build time:  0.19 s (CPU) 0.20 s (wall)
DIIS Errors:  Max 1.33E-06 RMS 1.76E-07

Current DIIS subspace size = 13
REM_GRID_RESTART_DIIS = 0

   13    -152.7048976276      1.76E-07  00000
Finding J and K together
 Job number = 22, Threshold = 1.00E-11
Integral type ranges set in mkLRange.C for JobNum: 22  <1-6|1-6>
 MakeJK  time:  CPU       0.17 s  wall       0.17 s
Fock build time:  0.17 s (CPU) 0.18 s (wall)
DIIS Errors:  Max 1.64E-07 RMS 2.81E-08

Current DIIS subspace size = 14
REM_GRID_RESTART_DIIS = 0

   14    -152.7048976276      2.81E-08  00000
Finding J and K together
 Job number = 22, Threshold = 1.00E-11
Integral type ranges set in mkLRange.C for JobNum: 22  <1-6|1-6>
 MakeJK  time:  CPU       0.19 s  wall       0.19 s
Fock build time:  0.19 s (CPU) 0.19 s (wall)
DIIS Errors:  Max 7.61E-08 RMS 9.42E-09

Current DIIS subspace size = 15
REM_GRID_RESTART_DIIS = 0

   15    -152.7048976276      9.42E-09  00000 Convergence criterion met
 ---------------------------------------
 SCF time:  CPU 2.49 s  wall 2.51 s
 SCF   energy in the final basis set = -152.70489763
 Total energy in the final basis set = -152.70489763
drvman_main.C: 73: calling DrvMan  Calculating analytic gradient of the SCF energy
drvman.C : 218: Calculating analytic gradient of the SCF energy
drvman.C: 244: calling SCF_Grad for normal SCF gradient
 Job number = 111, Threshold = 1.00E-11
Integral type ranges set in mkLRange.C for JobNum: 11  <1-6|7-7>
Finding J and K together
 ML is being used
 Job number = 122, Threshold = 1.00E-11
Integral type ranges set in mkLRange.C for JobNum: 22  <1-6|1-6>
 MakeJK  time:  CPU       0.46 s  wall       0.48 s
 Gradient of SCF Energy
            1           2           3           4           5           6
    1   0.1658124  -0.2420377  -0.0329935   0.0217124   0.2633023  -0.1492886
    2   0.2146855  -0.2236148  -0.0343556   0.0032944   0.1420391  -0.0859214
    3  -0.0632678   0.0649810   0.0043215   0.0050093  -0.0020150  -0.0132936
            7           8           9          10
    1   0.0038558   0.0215260  -0.0065830  -0.0453061
    2  -0.0387640   0.0729034  -0.0043041  -0.0459625
    3   0.0038464  -0.0020420  -0.0041492   0.0066094
 Max gradient component =       2.633E-01
 RMS gradient           =       1.039E-01
drvman.C: 248: out of SCF_Grad for normal SCF gradient
 Gradient time:  CPU 0.48 s  wall 0.50 s
 ------------------------------------------------------------------------------
                     drvman        : Timing summary (seconds)
 ------------------------------------------------------------------------------
     job step          cpu (% of tot)      sys (% of tot)     wall (% of tot)
 ------------------------------------------------------------------------------
 ------------------------------------------------------------------------------
   Grand Totals     0.4800E+00          0.4000E-05          0.4966E+00
 ------------------------------------------------------------------------------
drvman_main.C: 77: out of DrvMan  Time for this dynamics step: 3.0 s (CPU) 3.0 s (wall)

TIME STEP #4 (t = 60.000 a.u. = 1.45133 fs)
--------------------------------------
 Instantaneous Temperature = 1216.3 K
 ----------------------------------------------------------------
             Standard Nuclear Orientation (Angstroms)
    I     Atom           X                Y                Z
 ----------------------------------------------------------------
    1      C       5.4149234549     0.9032911484    -0.0068392061
    2      C       3.9018877732     0.0019387932    -0.0819976291
    3      H       5.9283743598     0.2169483442     0.6827831870
    4      H       5.8857958557     1.7648593212    -0.4306770296
    5      C       3.2748661573     0.9402304848    -0.9753025666
    6      C       1.8442762845     0.7246127176    -1.2444415768
    7      H       1.3482084180    -0.2249316669    -0.9366970143
    8      H       1.4773092633     1.7366951552    -1.5862911695
    9      H       3.5239412107    -0.9352361707     0.3616200252
   10      H       3.6496897606     1.7269080064    -1.5914461255
 ----------------------------------------------------------------
 Nuclear Repulsion Energy =    98.3811411349 hartrees
 There are       15 alpha and       15 beta electrons

                       Distance Matrix (Angstroms)
             C (  1)   C (  2)   H (  3)   H (  4)   C (  5)   C (  6)
   C (  2)  1.762771
   H (  3)  1.100126  2.176641
   H (  4)  1.069420  2.676819  1.907258
   C (  5)  2.349283  1.439285  3.211462  2.791699
   C (  6)  3.783267  2.471295  4.544422  4.251847  1.471569
   H (  7)  4.321538  2.702454  4.878104  4.980464  2.251911  1.114641
   H (  8)  4.323660  3.339290  5.222098  4.557520  2.058853  1.129529
   H (  9)  2.663036  1.103602  2.685512  3.673773  2.316630  2.855837
   H ( 10)  2.511050  2.305983  3.555911  2.519721  1.067233  2.093926
             H (  7)   H (  8)   H (  9)
   H (  8)  2.070415
   H (  9)  2.631344  3.888737
   H ( 10)  3.087910  2.172409  3.304133

 Applying Cartesian multipole field
    Component          Value
    ---------          -----
     (2,0,0)        1.00000E-12
     (0,2,0)        2.00000E-11
     (0,0,2)       -3.00000E-10
 Nucleus-field energy     =    -0.0000000200 hartrees
 ENuRep (before)= 98.3811411349
 ENucField = -0.0000000200
 ENuRep (after) = 98.3811411149
 Job number = 2, Threshold = 1.00E-11
Integral type ranges set in mkLRange.C for JobNum: 2  <1-6|1-6>
Symmetry turned off temporarily
Symmetry turned back on
 Job number = 11, Threshold = 1.00E-11
Integral type ranges set in mkLRange.C for JobNum: 11  <1-6|7-7>
 Smallest overlap matrix eigenvalue = 2.22E-01
 Multipole matrices computed through 2nd order
 Guess from superposition of atomic densities
 Warning:  Energy on first SCF cycle will be non-variational
 SAD guess density has 30.000000 electrons
 SCF convergence criterion is 10**(-8)
 A restricted Hartree-Fock SCF calculation will be
 performed using Pulay DIIS extrapolation
 SCF converges when DIIS error is below 1.0E-08
Finding J and K together
 Job number = 22, Threshold = 1.00E-11
Integral type ranges set in mkLRange.C for JobNum: 22  <1-6|1-6>
 MakeJK  time:  CPU       0.15 s  wall       0.15 s
Fock build time:  0.15 s (CPU) 0.15 s (wall)
DIIS Errors:  Max 9.01E-01 RMS 1.72E-01

Current DIIS subspace size = 1
REM_GRID_RESTART_DIIS = 0

 ---------------------------------------
  Cycle       Energy         DIIS Error
 ---------------------------------------
    1    -151.8437607421      1.72E-01  00000
Finding J and K together
 Job number = 22, Threshold = 1.00E-11
Integral type ranges set in mkLRange.C for JobNum: 22  <1-6|1-6>
 MakeJK  time:  CPU       0.15 s  wall       0.16 s
Fock build time:  0.15 s (CPU) 0.16 s (wall)
DIIS Errors:  Max 7.33E-02 RMS 1.41E-02

Current DIIS subspace size = 2
REM_GRID_RESTART_DIIS = 0

    2    -152.6948016867      1.41E-02  00000
Finding J and K together
 Job number = 22, Threshold = 1.00E-11
Integral type ranges set in mkLRange.C for JobNum: 22  <1-6|1-6>
 MakeJK  time:  CPU       0.13 s  wall       0.13 s
Fock build time:  0.13 s (CPU) 0.13 s (wall)
DIIS Errors:  Max 3.31E-02 RMS 5.88E-03

Current DIIS subspace size = 3
REM_GRID_RESTART_DIIS = 0

    3    -152.7253164454      5.88E-03  00000
Finding J and K together
 Job number = 22, Threshold = 1.00E-11
Integral type ranges set in mkLRange.C for JobNum: 22  <1-6|1-6>
 MakeJK  time:  CPU       0.14 s  wall       0.15 s
Fock build time:  0.14 s (CPU) 0.15 s (wall)
DIIS Errors:  Max 2.41E-02 RMS 4.03E-03

Current DIIS subspace size = 4
REM_GRID_RESTART_DIIS = 0

    4    -152.7285532948      4.03E-03  00000
Finding J and K together
 Job number = 22, Threshold = 1.00E-11
Integral type ranges set in mkLRange.C for JobNum: 22  <1-6|1-6>
 MakeJK  time:  CPU       0.16 s  wall       0.17 s
Fock build time:  0.17 s (CPU) 0.17 s (wall)
DIIS Errors:  Max 4.88E-03 RMS 1.10E-03

Current DIIS subspace size = 5
REM_GRID_RESTART_DIIS = 0

    5    -152.7305060111      1.10E-03  00000
Finding J and K together
 Job number = 22, Threshold = 1.00E-11
Integral type ranges set in mkLRange.C for JobNum: 22  <1-6|1-6>
 MakeJK  time:  CPU       0.18 s  wall       0.20 s
Fock build time:  0.18 s (CPU) 0.20 s (wall)
DIIS Errors:  Max 1.60E-03 RMS 2.49E-04

Current DIIS subspace size = 6
REM_GRID_RESTART_DIIS = 0

    6    -152.7306659442      2.49E-04  00000
Finding J and K together
 Job number = 22, Threshold = 1.00E-11
Integral type ranges set in mkLRange.C for JobNum: 22  <1-6|1-6>
 MakeJK  time:  CPU       0.18 s  wall       0.19 s
Fock build time:  0.18 s (CPU) 0.19 s (wall)
DIIS Errors:  Max 6.36E-04 RMS 7.85E-05

Current DIIS subspace size = 7
REM_GRID_RESTART_DIIS = 0

    7    -152.7306859331      7.85E-05  00000
Finding J and K together
 Job number = 22, Threshold = 1.00E-11
Integral type ranges set in mkLRange.C for JobNum: 22  <1-6|1-6>
 MakeJK  time:  CPU       0.17 s  wall       0.17 s
Fock build time:  0.17 s (CPU) 0.17 s (wall)
DIIS Errors:  Max 1.05E-04 RMS 1.80E-05

Current DIIS subspace size = 8
REM_GRID_RESTART_DIIS = 0

    8    -152.7306892518      1.80E-05  00000
Finding J and K together
 Job number = 22, Threshold = 1.00E-11
Integral type ranges set in mkLRange.C for JobNum: 22  <1-6|1-6>
 MakeJK  time:  CPU       0.20 s  wall       0.19 s
Fock build time:  0.20 s (CPU) 0.20 s (wall)
DIIS Errors:  Max 3.47E-05 RMS 6.09E-06

Current DIIS subspace size = 9
REM_GRID_RESTART_DIIS = 0

    9    -152.7306893891      6.09E-06  00000
Finding J and K together
 Job number = 22, Threshold = 1.00E-11
Integral type ranges set in mkLRange.C for JobNum: 22  <1-6|1-6>
 MakeJK  time:  CPU       0.14 s  wall       0.14 s
Fock build time:  0.14 s (CPU) 0.14 s (wall)
DIIS Errors:  Max 2.35E-05 RMS 3.11E-06

Current DIIS subspace size = 10
REM_GRID_RESTART_DIIS = 0

   10    -152.7306894073      3.11E-06  00000
Finding J and K together
 Job number = 22, Threshold = 1.00E-11
Integral type ranges set in mkLRange.C for JobNum: 22  <1-6|1-6>
 MakeJK  time:  CPU       0.12 s  wall       0.12 s
Fock build time:  0.12 s (CPU) 0.12 s (wall)
DIIS Errors:  Max 1.10E-05 RMS 1.22E-06

Current DIIS subspace size = 11
REM_GRID_RESTART_DIIS = 0

   11    -152.7306894159      1.22E-06  00000
Finding J and K together
 Job number = 22, Threshold = 1.00E-11
Integral type ranges set in mkLRange.C for JobNum: 22  <1-6|1-6>
 MakeJK  time:  CPU       0.12 s  wall       0.12 s
Fock build time:  0.12 s (CPU) 0.12 s (wall)
DIIS Errors:  Max 3.20E-06 RMS 4.63E-07

Current DIIS subspace size = 12
REM_GRID_RESTART_DIIS = 0

   12    -152.7306894174      4.63E-07  00000
Finding J and K together
 Job number = 22, Threshold = 1.00E-11
Integral type ranges set in mkLRange.C for JobNum: 22  <1-6|1-6>
 MakeJK  time:  CPU       0.13 s  wall       0.13 s
Fock build time:  0.13 s (CPU) 0.13 s (wall)
DIIS Errors:  Max 7.87E-07 RMS 1.25E-07

Current DIIS subspace size = 13
REM_GRID_RESTART_DIIS = 0

   13    -152.7306894176      1.25E-07  00000
Finding J and K together
 Job number = 22, Threshold = 1.00E-11
Integral type ranges set in mkLRange.C for JobNum: 22  <1-6|1-6>
 MakeJK  time:  CPU       0.14 s  wall       0.13 s
Fock build time:  0.14 s (CPU) 0.13 s (wall)
DIIS Errors:  Max 1.97E-07 RMS 2.60E-08

Current DIIS subspace size = 14
REM_GRID_RESTART_DIIS = 0

   14    -152.7306894176      2.60E-08  00000
Finding J and K together
 Job number = 22, Threshold = 1.00E-11
Integral type ranges set in mkLRange.C for JobNum: 22  <1-6|1-6>
 MakeJK  time:  CPU       0.16 s  wall       0.16 s
Fock build time:  0.16 s (CPU) 0.16 s (wall)
DIIS Errors:  Max 1.13E-07 RMS 1.20E-08

Current DIIS subspace size = 15
REM_GRID_RESTART_DIIS = 0

   15    -152.7306894176      1.20E-08  00000
Finding J and K together
 Job number = 22, Threshold = 1.00E-11
Integral type ranges set in mkLRange.C for JobNum: 22  <1-6|1-6>
 MakeJK  time:  CPU       0.18 s  wall       0.19 s
Fock build time:  0.18 s (CPU) 0.19 s (wall)
DIIS Errors:  Max 6.27E-08 RMS 6.06E-09

Current DIIS subspace size = 15
REM_GRID_RESTART_DIIS = 0

   16    -152.7306894176      6.06E-09  00000 Convergence criterion met
 ---------------------------------------
 SCF time:  CPU 2.50 s  wall 2.55 s
 SCF   energy in the final basis set = -152.73068942
 Total energy in the final basis set = -152.73068942
drvman_main.C: 73: calling DrvMan  Calculating analytic gradient of the SCF energy
drvman.C : 218: Calculating analytic gradient of the SCF energy
drvman.C: 244: calling SCF_Grad for normal SCF gradient
 Job number = 111, Threshold = 1.00E-11
Integral type ranges set in mkLRange.C for JobNum: 11  <1-6|7-7>
Finding J and K together
 ML is being used
 Job number = 122, Threshold = 1.00E-11
Integral type ranges set in mkLRange.C for JobNum: 22  <1-6|1-6>
 MakeJK  time:  CPU       0.51 s  wall       0.53 s
 Gradient of SCF Energy
            1           2           3           4           5           6
    1   0.1701490  -0.2354614  -0.0296069   0.0152758   0.2386106  -0.1460772
    2   0.2294898  -0.1998131  -0.0342246  -0.0115814   0.0991310  -0.0657339
    3  -0.0723472   0.0514061   0.0060680   0.0128938   0.0282958  -0.0202680
            7           8           9          10
    1   0.0032623   0.0260714  -0.0144972  -0.0277264
    2  -0.0376749   0.0547494  -0.0189017  -0.0154405
    3   0.0038178   0.0045956   0.0019363  -0.0163981
 Max gradient component =       2.386E-01
 RMS gradient           =       9.800E-02
drvman.C: 248: out of SCF_Grad for normal SCF gradient
 Gradient time:  CPU 0.53 s  wall 0.55 s
 ------------------------------------------------------------------------------
                     drvman        : Timing summary (seconds)
 ------------------------------------------------------------------------------
     job step          cpu (% of tot)      sys (% of tot)     wall (% of tot)
 ------------------------------------------------------------------------------
 ------------------------------------------------------------------------------
   Grand Totals     0.5280E+00          0.1000E-05          0.5492E+00
 ------------------------------------------------------------------------------
drvman_main.C: 77: out of DrvMan  Time for this dynamics step: 3.1 s (CPU) 3.1 s (wall)

TIME STEP #5 (t = 80.000 a.u. = 1.93511 fs)
--------------------------------------
 Instantaneous Temperature = 1755.6 K
 ----------------------------------------------------------------
             Standard Nuclear Orientation (Angstroms)
    I     Atom           X                Y                Z
 ----------------------------------------------------------------
    1      C       5.4056920344     0.9005166529    -0.0069073837
    2      C       3.9127081459     0.0155048176    -0.0846675378
    3      H       5.9365893448     0.2334315481     0.6887579929
    4      H       5.8672967322     1.7538416428    -0.4190886156
    5      C       3.2650056414     0.9316599537    -0.9719738439
    6      C       1.8522463856     0.7234421919    -1.2455755497
    7      H       1.3510360367    -0.2180764660    -0.9360765879
    8      H       1.4761100744     1.6941622697    -1.5826561052
    9      H       3.5120588038    -0.9383485148     0.3560526076
   10      H       3.6738173217     1.7477247798    -1.6012280350
 ----------------------------------------------------------------
 Nuclear Repulsion Energy =    98.8458243211 hartrees
 There are       15 alpha and       15 beta electrons

                       Distance Matrix (Angstroms)
             C (  1)   C (  2)   H (  3)   H (  4)   C (  5)   C (  6)
   C (  2)  1.737324
   H (  3)  1.100366  2.177562
   H (  4)  1.054104  2.637057  1.882491
   C (  5)  2.348374  1.430444  3.222253  2.784526
   C (  6)  3.767311  2.468681  4.545725  4.226752  1.453995
   H (  7)  4.307533  2.709543  4.885821  4.955033  2.233039  1.110612
   H (  8)  4.307490  3.316455  5.214301  4.543124  2.038257  1.094257
   H (  9)  2.664397  1.124540  2.713321  3.660038  2.306864  2.842840
   H ( 10)  2.501801  2.314651  3.557704  2.491755  1.108625  2.119850
             H (  7)   H (  8)   H (  9)
   H (  8)  2.022465
   H (  9)  2.618856  3.851466
   H ( 10)  3.114822  2.198438  3.327477

 Applying Cartesian multipole field
    Component          Value
    ---------          -----
     (2,0,0)        1.00000E-12
     (0,2,0)        2.00000E-11
     (0,0,2)       -3.00000E-10
 Nucleus-field energy     =    -0.0000000200 hartrees
 ENuRep (before)= 98.8458243211
 ENucField = -0.0000000200
 ENuRep (after) = 98.8458243011
 Job number = 2, Threshold = 1.00E-11
Integral type ranges set in mkLRange.C for JobNum: 2  <1-6|1-6>
Symmetry turned off temporarily
Symmetry turned back on
 Job number = 11, Threshold = 1.00E-11
Integral type ranges set in mkLRange.C for JobNum: 11  <1-6|7-7>
 Smallest overlap matrix eigenvalue = 2.18E-01
 Multipole matrices computed through 2nd order
 Guess from superposition of atomic densities
 Warning:  Energy on first SCF cycle will be non-variational
 SAD guess density has 30.000000 electrons
 SCF convergence criterion is 10**(-8)
 A restricted Hartree-Fock SCF calculation will be
 performed using Pulay DIIS extrapolation
 SCF converges when DIIS error is below 1.0E-08
Finding J and K together
 Job number = 22, Threshold = 1.00E-11
Integral type ranges set in mkLRange.C for JobNum: 22  <1-6|1-6>
 MakeJK  time:  CPU       0.15 s  wall       0.16 s
Fock build time:  0.15 s (CPU) 0.16 s (wall)
DIIS Errors:  Max 9.03E-01 RMS 1.75E-01

Current DIIS subspace size = 1
REM_GRID_RESTART_DIIS = 0

 ---------------------------------------
  Cycle       Energy         DIIS Error
 ---------------------------------------
    1    -151.8953950134      1.75E-01  00000
Finding J and K together
 Job number = 22, Threshold = 1.00E-11
Integral type ranges set in mkLRange.C for JobNum: 22  <1-6|1-6>
 MakeJK  time:  CPU       0.15 s  wall       0.16 s
Fock build time:  0.16 s (CPU) 0.16 s (wall)
DIIS Errors:  Max 7.22E-02 RMS 1.40E-02

Current DIIS subspace size = 2
REM_GRID_RESTART_DIIS = 0

    2    -152.7215857345      1.40E-02  00000
Finding J and K together
 Job number = 22, Threshold = 1.00E-11
Integral type ranges set in mkLRange.C for JobNum: 22  <1-6|1-6>
 MakeJK  time:  CPU       0.13 s  wall       0.13 s
Fock build time:  0.13 s (CPU) 0.13 s (wall)
DIIS Errors:  Max 3.05E-02 RMS 5.50E-03

Current DIIS subspace size = 3
REM_GRID_RESTART_DIIS = 0

    3    -152.7519547108      5.50E-03  00000
Finding J and K together
 Job number = 22, Threshold = 1.00E-11
Integral type ranges set in mkLRange.C for JobNum: 22  <1-6|1-6>
 MakeJK  time:  CPU       0.14 s  wall       0.14 s
Fock build time:  0.14 s (CPU) 0.14 s (wall)
DIIS Errors:  Max 1.97E-02 RMS 3.48E-03

Current DIIS subspace size = 4
REM_GRID_RESTART_DIIS = 0

    4    -152.7551617315      3.48E-03  00000
Finding J and K together
 Job number = 22, Threshold = 1.00E-11
Integral type ranges set in mkLRange.C for JobNum: 22  <1-6|1-6>
 MakeJK  time:  CPU       0.14 s  wall       0.14 s
Fock build time:  0.14 s (CPU) 0.14 s (wall)
DIIS Errors:  Max 4.56E-03 RMS 9.56E-04

Current DIIS subspace size = 5
REM_GRID_RESTART_DIIS = 0

    5    -152.7566397689      9.56E-04  00000
Finding J and K together
 Job number = 22, Threshold = 1.00E-11
Integral type ranges set in mkLRange.C for JobNum: 22  <1-6|1-6>
 MakeJK  time:  CPU       0.12 s  wall       0.12 s
Fock build time:  0.12 s (CPU) 0.12 s (wall)
DIIS Errors:  Max 1.48E-03 RMS 2.38E-04

Current DIIS subspace size = 6
REM_GRID_RESTART_DIIS = 0

    6    -152.7567620915      2.38E-04  00000
Finding J and K together
 Job number = 22, Threshold = 1.00E-11
Integral type ranges set in mkLRange.C for JobNum: 22  <1-6|1-6>
 MakeJK  time:  CPU       0.12 s  wall       0.12 s
Fock build time:  0.12 s (CPU) 0.12 s (wall)
DIIS Errors:  Max 5.72E-04 RMS 7.18E-05

Current DIIS subspace size = 7
REM_GRID_RESTART_DIIS = 0

    7    -152.7567792211      7.18E-05  00000
Finding J and K together
 Job number = 22, Threshold = 1.00E-11
Integral type ranges set in mkLRange.C for JobNum: 22  <1-6|1-6>
 MakeJK  time:  CPU       0.12 s  wall       0.12 s
Fock build time:  0.12 s (CPU) 0.12 s (wall)
DIIS Errors:  Max 9.63E-05 RMS 1.61E-05

Current DIIS subspace size = 8
REM_GRID_RESTART_DIIS = 0

    8    -152.7567818414      1.61E-05  00000
Finding J and K together
 Job number = 22, Threshold = 1.00E-11
Integral type ranges set in mkLRange.C for JobNum: 22  <1-6|1-6>
 MakeJK  time:  CPU       0.17 s  wall       0.17 s
Fock build time:  0.17 s (CPU) 0.17 s (wall)
DIIS Errors:  Max 3.70E-05 RMS 6.02E-06

Current DIIS subspace size = 9
REM_GRID_RESTART_DIIS = 0

    9    -152.7567819404      6.02E-06  00000
Finding J and K together
 Job number = 22, Threshold = 1.00E-11
Integral type ranges set in mkLRange.C for JobNum: 22  <1-6|1-6>
 MakeJK  time:  CPU       0.13 s  wall       0.14 s
Fock build time:  0.14 s (CPU) 0.14 s (wall)
DIIS Errors:  Max 2.45E-05 RMS 3.20E-06

Current DIIS subspace size = 10
REM_GRID_RESTART_DIIS = 0

   10    -152.7567819539      3.20E-06  00000
Finding J and K together
 Job number = 22, Threshold = 1.00E-11
Integral type ranges set in mkLRange.C for JobNum: 22  <1-6|1-6>
 MakeJK  time:  CPU       0.14 s  wall       0.14 s
Fock build time:  0.14 s (CPU) 0.14 s (wall)
DIIS Errors:  Max 1.02E-05 RMS 1.11E-06

Current DIIS subspace size = 11
REM_GRID_RESTART_DIIS = 0

   11    -152.7567819601      1.11E-06  00000
Finding J and K together
 Job number = 22, Threshold = 1.00E-11
Integral type ranges set in mkLRange.C for JobNum: 22  <1-6|1-6>
 MakeJK  time:  CPU       0.12 s  wall       0.12 s
Fock build time:  0.12 s (CPU) 0.12 s (wall)
DIIS Errors:  Max 2.73E-06 RMS 3.36E-07

Current DIIS subspace size = 12
REM_GRID_RESTART_DIIS = 0

   12    -152.7567819610      3.36E-07  00000
Finding J and K together
 Job number = 22, Threshold = 1.00E-11
Integral type ranges set in mkLRange.C for JobNum: 22  <1-6|1-6>
 MakeJK  time:  CPU       0.12 s  wall       0.12 s
Fock build time:  0.12 s (CPU) 0.12 s (wall)
DIIS Errors:  Max 5.61E-07 RMS 8.67E-08

Current DIIS subspace size = 13
REM_GRID_RESTART_DIIS = 0

   13    -152.7567819610      8.67E-08  00000
Finding J and K together
 Job number = 22, Threshold = 1.00E-11
Integral type ranges set in mkLRange.C for JobNum: 22  <1-6|1-6>
 MakeJK  time:  CPU       0.12 s  wall       0.12 s
Fock build time:  0.12 s (CPU) 0.12 s (wall)
DIIS Errors:  Max 8.39E-08 RMS 1.52E-08

Current DIIS subspace size = 14
REM_GRID_RESTART_DIIS = 0

   14    -152.7567819610      1.52E-08  00000
Finding J and K together
 Job number = 22, Threshold = 1.00E-11
Integral type ranges set in mkLRange.C for JobNum: 22  <1-6|1-6>
 MakeJK  time:  CPU       0.16 s  wall       0.16 s
Fock build time:  0.16 s (CPU) 0.16 s (wall)
DIIS Errors:  Max 3.39E-08 RMS 5.03E-09

Current DIIS subspace size = 15
REM_GRID_RESTART_DIIS = 0

   15    -152.7567819610      5.03E-09  00000 Convergence criterion met
 ---------------------------------------
 SCF time:  CPU 2.06 s  wall 2.09 s
 SCF   energy in the final basis set = -152.75678196
 Total energy in the final basis set = -152.75678196
drvman_main.C: 73: calling DrvMan  Calculating analytic gradient of the SCF energy
drvman.C : 218: Calculating analytic gradient of the SCF energy
drvman.C: 244: calling SCF_Grad for normal SCF gradient
 Job number = 111, Threshold = 1.00E-11
Integral type ranges set in mkLRange.C for JobNum: 11  <1-6|7-7>
Finding J and K together
 ML is being used
 Job number = 122, Threshold = 1.00E-11
Integral type ranges set in mkLRange.C for JobNum: 22  <1-6|1-6>
 MakeJK  time:  CPU       0.46 s  wall       0.47 s
 Gradient of SCF Energy
            1           2           3           4           5           6
    1   0.1739250  -0.2285091  -0.0260926   0.0098605   0.2106639  -0.1424323
    2   0.2402038  -0.1754278  -0.0323714  -0.0247940   0.0576247  -0.0402822
    3  -0.0789241   0.0376644   0.0069303   0.0198822   0.0551734  -0.0287226
            7           8           9          10
    1   0.0029624   0.0322196  -0.0225462  -0.0100510
    2  -0.0346331   0.0304389  -0.0321940   0.0114351
    3   0.0031828   0.0135844   0.0069746  -0.0357454
 Max gradient component =       2.402E-01
 RMS gradient           =       9.335E-02
drvman.C: 248: out of SCF_Grad for normal SCF gradient
 Gradient time:  CPU 0.48 s  wall 0.49 s
 ------------------------------------------------------------------------------
                     drvman        : Timing summary (seconds)
 ------------------------------------------------------------------------------
     job step          cpu (% of tot)      sys (% of tot)     wall (% of tot)
 ------------------------------------------------------------------------------
 ------------------------------------------------------------------------------
   Grand Totals     0.4800E+00          0.1000E-05          0.4930E+00
 ------------------------------------------------------------------------------
drvman_main.C: 77: out of DrvMan  Time for this dynamics step: 2.6 s (CPU) 2.6 s (wall)

TIME STEP #6 (t = 100.000 a.u. = 2.41888 fs)
--------------------------------------
 Instantaneous Temperature = 2303.8 K
 ----------------------------------------------------------------
             Standard Nuclear Orientation (Angstroms)
    I     Atom           X                Y                Z
 ----------------------------------------------------------------
    1      C       5.3947776233     0.8954178171    -0.0062118501
    2      C       3.9257396941     0.0307683748    -0.0877019077
    3      H       5.9478106236     0.2536444625     0.6939343136
    4      H       5.8476615198     1.7456806414    -0.4097909575
    5      C       3.2531066298     0.9225318151    -0.9691790082
    6      C       1.8615947380     0.7226614580    -1.2464315871
    7      H       1.3535223442    -0.2072309644    -0.9358228743
    8      H       1.4711986585     1.6481223304    -1.5805861813
    9      H       3.5027740906    -0.9377515904     0.3496816068
   10      H       3.6991029239     1.7672240450    -1.6068914916
 ----------------------------------------------------------------
 Nuclear Repulsion Energy =    99.4089355327 hartrees
 There are       15 alpha and       15 beta electrons

                       Distance Matrix (Angstroms)
             C (  1)   C (  2)   H (  3)   H (  4)   C (  5)   C (  6)
   C (  2)  1.706556
   H (  3)  1.099056  2.179312
   H (  4)  1.044474  2.595852  1.858605
   C (  5)  2.348360  1.422912  3.236477  2.778885
   C (  6)  3.748516  2.466184  4.547764  4.199436  1.432872
   H (  7)  4.290892  2.718870  4.896529  4.928272  2.210407  1.104226
   H (  8)  4.294146  3.296864  5.211340  4.531413  2.018786  1.058559
   H (  9)  2.658354  1.143781  2.741558  3.643639  2.293988  2.828077
   H ( 10)  2.489485  2.318314  3.555476  2.459638  1.148519  2.144173
             H (  7)   H (  8)   H (  9)
   H (  8)  1.967715
   H (  9)  2.608729  3.813132
   H ( 10)  3.138559  2.231241  3.344191

 Applying Cartesian multipole field
    Component          Value
    ---------          -----
     (2,0,0)        1.00000E-12
     (0,2,0)        2.00000E-11
     (0,0,2)       -3.00000E-10
 Nucleus-field energy     =    -0.0000000200 hartrees
 ENuRep (before)= 99.4089355327
 ENucField = -0.0000000200
 ENuRep (after) = 99.4089355127
 Job number = 2, Threshold = 1.00E-11
Integral type ranges set in mkLRange.C for JobNum: 2  <1-6|1-6>
Symmetry turned off temporarily
Symmetry turned back on
 Job number = 11, Threshold = 1.00E-11
Integral type ranges set in mkLRange.C for JobNum: 11  <1-6|7-7>
 Smallest overlap matrix eigenvalue = 2.12E-01
[...]
    5      C       3.0004683621     0.5680499086    -0.9823900071
    6      C       2.7649356840    -0.7235024935    -1.5496301560
    7      H       3.3919886102    -1.4939217449    -1.1285886910
    8      H       2.2212536561    -1.0627409277    -2.6121866245
    9      H       4.9965064540    -0.0028088392     0.0176182106
   10      H       2.5033829350     1.3912782596    -1.7752744064
 ----------------------------------------------------------------
 Nuclear Repulsion Energy =    99.6509904315 hartrees
 There are       15 alpha and       15 beta electrons

                       Distance Matrix (Angstroms)
             C (  1)   C (  2)   H (  3)   H (  4)   C (  5)   C (  6)
   C (  2)  1.368419
   H (  3)  0.950564  1.902361
   H (  4)  1.220615  2.343239  1.899124
   C (  5)  2.406795  1.607732  3.238481  2.719831
   C (  6)  3.699534  2.612213  4.415588  4.130342  1.430155
   H (  7)  3.932118  2.656296  4.468240  4.630577  2.103899  1.078896
   H (  8)  4.765816  3.798754  5.519137  5.019750  2.433699  1.240846
   H (  9)  2.111240  1.125128  2.239524  3.221220  2.304358  2.820563
   H ( 10)  2.880566  2.609998  3.797672  2.649743  1.246381  2.142807
             H (  7)   H (  8)   H (  9)
   H (  8)  1.938453
   H (  9)  2.472182  3.967538
   H ( 10)  3.087426  2.608108  3.372478

 Applying Cartesian multipole field
    Component          Value
    ---------          -----
     (2,0,0)        1.00000E-12
     (0,2,0)        2.00000E-11
     (0,0,2)       -3.00000E-10
 Nucleus-field energy     =    -0.0000000295 hartrees
 ENuRep (before)= 99.6509904315
 ENucField = -0.0000000295
 ENuRep (after) = 99.6509904020
 Job number = 2, Threshold = 1.00E-11
Integral type ranges set in mkLRange.C for JobNum: 2  <1-6|1-6>
Symmetry turned off temporarily
Symmetry turned back on
 Job number = 11, Threshold = 1.00E-11
Integral type ranges set in mkLRange.C for JobNum: 11  <1-6|7-7>
 Smallest overlap matrix eigenvalue = 1.83E-01
 Multipole matrices computed through 2nd order
 Extrapolating the Fock matrix using 12 points and a 6th-order polynomial
 Alpha Fock matrix extrapolation
 Skip SCF guess (diagonalize extrapolated Fock matrix instead)
 SCF convergence criterion is 10**(-8)
 A restricted Hartree-Fock SCF calculation will be
 performed using Pulay DIIS extrapolation
 SCF converges when DIIS error is below 1.0E-08
Extrapolated Fock matrix used in lieu of Fock build
Fock build time:  0.00 s (CPU) 0.00 s (wall)
DIIS Errors:  Max 9.13E-02 RMS 1.25E-02

Current DIIS subspace size = 1
REM_GRID_RESTART_DIIS = 0

 ---------------------------------------
  Cycle       Energy         DIIS Error
 ---------------------------------------
    1    -304.3859493453      1.25E-02  00000
Finding J and K together
 Job number = 22, Threshold = 1.00E-11
Integral type ranges set in mkLRange.C for JobNum: 22  <1-6|1-6>
 MakeJK  time:  CPU       0.19 s  wall       0.20 s
Fock build time:  0.19 s (CPU) 0.20 s (wall)
DIIS Errors:  Max 8.42E-02 RMS 6.76E-03

Current DIIS subspace size = 2
REM_GRID_RESTART_DIIS = 0

    2    -152.8494005090      6.76E-03  00000
Finding J and K together
 Job number = 22, Threshold = 1.00E-11
Integral type ranges set in mkLRange.C for JobNum: 22  <1-6|1-6>
 MakeJK  time:  CPU       0.19 s  wall       0.21 s
Fock build time:  0.19 s (CPU) 0.21 s (wall)
DIIS Errors:  Max 2.91E-02 RMS 2.37E-03

Current DIIS subspace size = 3
REM_GRID_RESTART_DIIS = 0

    3    -152.8501711546      2.37E-03  00000
Finding J and K together
 Job number = 22, Threshold = 1.00E-11
Integral type ranges set in mkLRange.C for JobNum: 22  <1-6|1-6>
 MakeJK  time:  CPU       0.19 s  wall       0.21 s
Fock build time:  0.19 s (CPU) 0.21 s (wall)
DIIS Errors:  Max 5.99E-04 RMS 1.07E-04

Current DIIS subspace size = 4
REM_GRID_RESTART_DIIS = 0

    4    -152.8502976936      1.07E-04  00000
Finding J and K together
 Job number = 22, Threshold = 1.00E-11
Integral type ranges set in mkLRange.C for JobNum: 22  <1-6|1-6>
 MakeJK  time:  CPU       0.20 s  wall       0.27 s
Fock build time:  0.20 s (CPU) 0.27 s (wall)
DIIS Errors:  Max 3.87E-04 RMS 4.04E-05

Current DIIS subspace size = 5
REM_GRID_RESTART_DIIS = 0

    5    -152.8502990124      4.04E-05  00000
Finding J and K together
 Job number = 22, Threshold = 1.00E-11
Integral type ranges set in mkLRange.C for JobNum: 22  <1-6|1-6>
 MakeJK  time:  CPU       0.16 s  wall       0.19 s
Fock build time:  0.16 s (CPU) 0.19 s (wall)
DIIS Errors:  Max 1.00E-04 RMS 1.23E-05

Current DIIS subspace size = 6
REM_GRID_RESTART_DIIS = 0

    6    -152.8502993752      1.23E-05  00000
Finding J and K together
 Job number = 22, Threshold = 1.00E-11
Integral type ranges set in mkLRange.C for JobNum: 22  <1-6|1-6>
 MakeJK  time:  CPU       0.16 s  wall       0.17 s
Fock build time:  0.16 s (CPU) 0.17 s (wall)
DIIS Errors:  Max 2.34E-05 RMS 3.99E-06

Current DIIS subspace size = 7
REM_GRID_RESTART_DIIS = 0

    7    -152.8502994115      3.99E-06  00000
Finding J and K together
 Job number = 22, Threshold = 1.00E-11
Integral type ranges set in mkLRange.C for JobNum: 22  <1-6|1-6>
 MakeJK  time:  CPU       0.16 s  wall       0.18 s
Fock build time:  0.16 s (CPU) 0.18 s (wall)
DIIS Errors:  Max 1.52E-05 RMS 2.00E-06

Current DIIS subspace size = 8
REM_GRID_RESTART_DIIS = 0

    8    -152.8502994160      2.00E-06  00000
Finding J and K together
 Job number = 22, Threshold = 1.00E-11
Integral type ranges set in mkLRange.C for JobNum: 22  <1-6|1-6>
 MakeJK  time:  CPU       0.13 s  wall       0.13 s
Fock build time:  0.13 s (CPU) 0.13 s (wall)
DIIS Errors:  Max 1.90E-06 RMS 3.50E-07

Current DIIS subspace size = 9
REM_GRID_RESTART_DIIS = 0

    9    -152.8502994166      3.50E-07  00000
Finding J and K together
 Job number = 22, Threshold = 1.00E-11
Integral type ranges set in mkLRange.C for JobNum: 22  <1-6|1-6>
 MakeJK  time:  CPU       0.14 s  wall       0.14 s
Fock build time:  0.14 s (CPU) 0.14 s (wall)
DIIS Errors:  Max 6.48E-07 RMS 1.14E-07

Current DIIS subspace size = 10
REM_GRID_RESTART_DIIS = 0

   10    -152.8502994167      1.14E-07  00000
Finding J and K together
 Job number = 22, Threshold = 1.00E-11
Integral type ranges set in mkLRange.C for JobNum: 22  <1-6|1-6>
 MakeJK  time:  CPU       0.16 s  wall       0.16 s
Fock build time:  0.16 s (CPU) 0.16 s (wall)
DIIS Errors:  Max 2.18E-07 RMS 3.01E-08

Current DIIS subspace size = 11
REM_GRID_RESTART_DIIS = 0

   11    -152.8502994167      3.01E-08  00000
Finding J and K together
 Job number = 22, Threshold = 1.00E-11
Integral type ranges set in mkLRange.C for JobNum: 22  <1-6|1-6>
 MakeJK  time:  CPU       0.14 s  wall       0.14 s
Fock build time:  0.14 s (CPU) 0.14 s (wall)
DIIS Errors:  Max 5.86E-08 RMS 7.41E-09

Current DIIS subspace size = 12
REM_GRID_RESTART_DIIS = 0

   12    -152.8502994167      7.41E-09  00000 Convergence criterion met
 ---------------------------------------
 SCF time:  CPU 1.86 s  wall 2.04 s
 SCF   energy in the final basis set = -152.85029942
 Total energy in the final basis set = -152.85029942
drvman_main.C: 73: calling DrvMan  Calculating analytic gradient of the SCF energy
drvman.C : 218: Calculating analytic gradient of the SCF energy
drvman.C: 244: calling SCF_Grad for normal SCF gradient
 Job number = 111, Threshold = 1.00E-11
Integral type ranges set in mkLRange.C for JobNum: 11  <1-6|7-7>
Finding J and K together
 ML is being used
 Job number = 122, Threshold = 1.00E-11
Integral type ranges set in mkLRange.C for JobNum: 22  <1-6|1-6>
 MakeJK  time:  CPU       0.38 s  wall       0.40 s
 Gradient of SCF Energy
            1           2           3           4           5           6
    1   0.1687529   0.0317402  -0.1544706  -0.0386673   0.0413511  -0.0123417
    2   0.0226335  -0.0879260  -0.0485103   0.0798674   0.1063867  -0.0820130
    3   0.0767391   0.1295935  -0.0798240  -0.0419257   0.1117139   0.0177795
            7           8           9          10
    1   0.0092376  -0.0357340   0.0333411  -0.0432092
    2   0.0162542  -0.0400140  -0.0057229   0.0390444
    3  -0.0033943  -0.0895672  -0.0323040  -0.0888108
 Max gradient component =       1.688E-01
 RMS gradient           =       7.304E-02
drvman.C: 248: out of SCF_Grad for normal SCF gradient
 Gradient time:  CPU 0.39 s  wall 0.42 s
 ------------------------------------------------------------------------------
                     drvman        : Timing summary (seconds)
 ------------------------------------------------------------------------------
     job step          cpu (% of tot)      sys (% of tot)     wall (% of tot)
 ------------------------------------------------------------------------------
 ------------------------------------------------------------------------------
   Grand Totals     0.3880E+00          0.2000E-05          0.4194E+00
 ------------------------------------------------------------------------------
drvman_main.C: 77: out of DrvMan  Time for this dynamics step: 2.3 s (CPU) 2.5 s (wall)

TIME STEP #400 (t = 7980.000 a.u. = 193.02697 fs)
--------------------------------------
 Instantaneous Temperature = 4269.1 K
 ----------------------------------------------------------------
             Standard Nuclear Orientation (Angstroms)
    I     Atom           X                Y                Z
 ----------------------------------------------------------------
    1      C       4.4865481603     2.0363175262     0.2109650715
    2      C       4.1535758671     0.7201827605     0.1523046633
    3      H       5.2927090137     2.1254880915     0.6733275205
    4      H       3.9245101737     3.0892561202    -0.1842054038
    5      C       2.9853102257     0.5610961317    -0.9940085317
    6      C       2.7683011808    -0.7298831394    -1.5439832206
    7      H       3.4078230551    -1.5108173162    -1.1635838470
    8      H       2.2372566833    -1.0584047075    -2.6122158057
    9      H       4.9530828427     0.0231619011     0.0064488755
   10      H       2.5006199247     1.4065218672    -1.8143071940
 ----------------------------------------------------------------
 Nuclear Repulsion Energy =    99.4720943642 hartrees
 There are       15 alpha and       15 beta electrons

                       Distance Matrix (Angstroms)
             C (  1)   C (  2)   H (  3)   H (  4)   C (  5)   C (  6)
   C (  2)  1.358868
   H (  3)  0.933609  1.882544
   H (  4)  1.257269  2.403793  1.880473
   C (  5)  2.425274  1.644441  3.248295  2.815932
   C (  6)  3.699200  2.626608  4.409336  4.215642  1.419927
   H (  7)  3.954137  2.695380  4.488848  4.731472  2.121343  1.078680
   H (  8)  4.754679  3.805026  5.501614  5.093638  2.408519  1.237358
   H (  9)  2.076602  1.070665  2.231557  3.239636  2.272095  2.782838
   H ( 10)  2.905560  2.659114  3.808018  2.741585  1.273797  2.170013
             H (  7)   H (  8)   H (  9)
   H (  8)  1.916621
   H (  9)  2.471821  3.924653
   H ( 10)  3.123672  2.604205  3.353120

 Applying Cartesian multipole field
    Component          Value
    ---------          -----
     (2,0,0)        1.00000E-12
     (0,2,0)        2.00000E-11
     (0,0,2)       -3.00000E-10
 Nucleus-field energy     =    -0.0000000297 hartrees
 ENuRep (before)= 99.4720943642
 ENucField = -0.0000000297
 ENuRep (after) = 99.4720943345
 Job number = 2, Threshold = 1.00E-11
Integral type ranges set in mkLRange.C for JobNum: 2  <1-6|1-6>
Symmetry turned off temporarily
Symmetry turned back on
 Job number = 11, Threshold = 1.00E-11
Integral type ranges set in mkLRange.C for JobNum: 11  <1-6|7-7>
 Smallest overlap matrix eigenvalue = 1.76E-01
 Multipole matrices computed through 2nd order
 Extrapolating the Fock matrix using 12 points and a 6th-order polynomial
 Alpha Fock matrix extrapolation
 Skip SCF guess (diagonalize extrapolated Fock matrix instead)
 SCF convergence criterion is 10**(-8)
 A restricted Hartree-Fock SCF calculation will be
 performed using Pulay DIIS extrapolation
 SCF converges when DIIS error is below 1.0E-08
Extrapolated Fock matrix used in lieu of Fock build
Fock build time:  0.00 s (CPU) 0.00 s (wall)
DIIS Errors:  Max 7.23E-02 RMS 1.12E-02

Current DIIS subspace size = 1
REM_GRID_RESTART_DIIS = 0

 ---------------------------------------
  Cycle       Energy         DIIS Error
 ---------------------------------------
    1    -304.1686462860      1.12E-02  00000
Finding J and K together
 Job number = 22, Threshold = 1.00E-11
Integral type ranges set in mkLRange.C for JobNum: 22  <1-6|1-6>
 MakeJK  time:  CPU       0.19 s  wall       0.20 s
Fock build time:  0.19 s (CPU) 0.20 s (wall)
DIIS Errors:  Max 5.94E-02 RMS 6.37E-03

Current DIIS subspace size = 2
REM_GRID_RESTART_DIIS = 0

    2    -152.8296023947      6.37E-03  00000
Finding J and K together
 Job number = 22, Threshold = 1.00E-11
Integral type ranges set in mkLRange.C for JobNum: 22  <1-6|1-6>
 MakeJK  time:  CPU       0.16 s  wall       0.16 s
Fock build time:  0.16 s (CPU) 0.16 s (wall)
DIIS Errors:  Max 2.16E-02 RMS 2.33E-03

Current DIIS subspace size = 3
REM_GRID_RESTART_DIIS = 0

    3    -152.8302710339      2.33E-03  00000
Finding J and K together
 Job number = 22, Threshold = 1.00E-11
Integral type ranges set in mkLRange.C for JobNum: 22  <1-6|1-6>
 MakeJK  time:  CPU       0.17 s  wall       0.17 s
Fock build time:  0.17 s (CPU) 0.17 s (wall)
DIIS Errors:  Max 8.43E-04 RMS 1.43E-04

Current DIIS subspace size = 4
REM_GRID_RESTART_DIIS = 0

    4    -152.8303894036      1.43E-04  00000
Finding J and K together
 Job number = 22, Threshold = 1.00E-11
Integral type ranges set in mkLRange.C for JobNum: 22  <1-6|1-6>
 MakeJK  time:  CPU       0.17 s  wall       0.18 s
Fock build time:  0.18 s (CPU) 0.18 s (wall)
DIIS Errors:  Max 3.04E-04 RMS 4.22E-05

Current DIIS subspace size = 5
REM_GRID_RESTART_DIIS = 0

    5    -152.8303916331      4.22E-05  00000
Finding J and K together
 Job number = 22, Threshold = 1.00E-11
Integral type ranges set in mkLRange.C for JobNum: 22  <1-6|1-6>
 MakeJK  time:  CPU       0.13 s  wall       0.13 s
Fock build time:  0.13 s (CPU) 0.13 s (wall)
DIIS Errors:  Max 9.44E-05 RMS 1.30E-05

Current DIIS subspace size = 6
REM_GRID_RESTART_DIIS = 0

    6    -152.8303920549      1.30E-05  00000
Finding J and K together
 Job number = 22, Threshold = 1.00E-11
Integral type ranges set in mkLRange.C for JobNum: 22  <1-6|1-6>
 MakeJK  time:  CPU       0.15 s  wall       0.15 s
Fock build time:  0.15 s (CPU) 0.15 s (wall)
DIIS Errors:  Max 3.74E-05 RMS 4.69E-06

Current DIIS subspace size = 7
REM_GRID_RESTART_DIIS = 0

    7    -152.8303920970      4.69E-06  00000
Finding J and K together
 Job number = 22, Threshold = 1.00E-11
Integral type ranges set in mkLRange.C for JobNum: 22  <1-6|1-6>
 MakeJK  time:  CPU       0.16 s  wall       0.16 s
Fock build time:  0.16 s (CPU) 0.16 s (wall)
DIIS Errors:  Max 1.41E-05 RMS 2.21E-06

Current DIIS subspace size = 8
REM_GRID_RESTART_DIIS = 0

    8    -152.8303921046      2.21E-06  00000
Finding J and K together
 Job number = 22, Threshold = 1.00E-11
Integral type ranges set in mkLRange.C for JobNum: 22  <1-6|1-6>
 MakeJK  time:  CPU       0.17 s  wall       0.17 s
Fock build time:  0.17 s (CPU) 0.17 s (wall)
DIIS Errors:  Max 1.64E-06 RMS 3.30E-07

Current DIIS subspace size = 9
REM_GRID_RESTART_DIIS = 0

    9    -152.8303921055      3.30E-07  00000
Finding J and K together
 Job number = 22, Threshold = 1.00E-11
Integral type ranges set in mkLRange.C for JobNum: 22  <1-6|1-6>
 MakeJK  time:  CPU       0.17 s  wall       0.17 s
Fock build time:  0.17 s (CPU) 0.17 s (wall)
DIIS Errors:  Max 5.49E-07 RMS 7.89E-08

Current DIIS subspace size = 10
REM_GRID_RESTART_DIIS = 0

   10    -152.8303921056      7.89E-08  00000
Finding J and K together
 Job number = 22, Threshold = 1.00E-11
Integral type ranges set in mkLRange.C for JobNum: 22  <1-6|1-6>
 MakeJK  time:  CPU       0.16 s  wall       0.16 s
Fock build time:  0.16 s (CPU) 0.16 s (wall)
DIIS Errors:  Max 1.31E-07 RMS 1.89E-08

Current DIIS subspace size = 11
REM_GRID_RESTART_DIIS = 0

   11    -152.8303921056      1.89E-08  00000
Finding J and K together
 Job number = 22, Threshold = 1.00E-11
Integral type ranges set in mkLRange.C for JobNum: 22  <1-6|1-6>
 MakeJK  time:  CPU       0.19 s  wall       0.22 s
Fock build time:  0.19 s (CPU) 0.22 s (wall)
DIIS Errors:  Max 3.13E-08 RMS 4.14E-09

Current DIIS subspace size = 12
REM_GRID_RESTART_DIIS = 0

   12    -152.8303921056      4.14E-09  00000 Convergence criterion met
 ---------------------------------------
 SCF time:  CPU 1.84 s  wall 1.89 s
 SCF   energy in the final basis set = -152.83039211
 Total energy in the final basis set = -152.83039211
drvman_main.C: 73: calling DrvMan  Calculating analytic gradient of the SCF energy
drvman.C : 218: Calculating analytic gradient of the SCF energy
drvman.C: 244: calling SCF_Grad for normal SCF gradient
 Job number = 111, Threshold = 1.00E-11
Integral type ranges set in mkLRange.C for JobNum: 11  <1-6|7-7>
Finding J and K together
 ML is being used
 Job number = 122, Threshold = 1.00E-11
Integral type ranges set in mkLRange.C for JobNum: 22  <1-6|1-6>
 MakeJK  time:  CPU       0.45 s  wall       0.47 s
 Gradient of SCF Energy
            1           2           3           4           5           6
    1   0.1888503   0.0856281  -0.1830046  -0.0375012   0.0262441  -0.0089530
    2  -0.0023964  -0.1055914  -0.0506457   0.0997175   0.0901977  -0.0777682
    3   0.0863221   0.1404130  -0.0959985  -0.0390700   0.1002161   0.0308221
            7           8           9          10
    1   0.0089792  -0.0328811  -0.0042573  -0.0431044
    2   0.0133722  -0.0386935   0.0231061   0.0487018
    3  -0.0086971  -0.0887484  -0.0302714  -0.0949879
 Max gradient component =       1.889E-01
 RMS gradient           =       7.978E-02
drvman.C: 248: out of SCF_Grad for normal SCF gradient
 Gradient time:  CPU 0.47 s  wall 0.49 s
 ------------------------------------------------------------------------------
                     drvman        : Timing summary (seconds)
 ------------------------------------------------------------------------------
     job step          cpu (% of tot)      sys (% of tot)     wall (% of tot)
 ------------------------------------------------------------------------------
 ------------------------------------------------------------------------------
   Grand Totals     0.4720E+00          0.2000E-05          0.4907E+00
 ------------------------------------------------------------------------------
drvman_main.C: 77: out of DrvMan  Time for this dynamics step: 2.3 s (CPU) 2.4 s (wall)

=============== TIME STEPS COMPLETED ==================

Step-to-Step energy fluctuations, |E(n) - E(n-1)|
Mean: -2.529e-06   Max: 3.074e-03   RMS: 7.372e-04
Overall energy fluctuations, |E(n) - E(0)|
Mean: -1.188e-03   Max: 3.303e-03   RMS: 8.245e-04   RMS(dE)/RMS(dV): 1.978e-02
Kinetic energy fluctuations, |T(n) - V(0)|
Mean: 1.652e-01   Max: 2.884e-01   RMS: 4.115e-02
Potential energy fluctuations, |V(n) - V(0)|
Mean: -1.664e-01   Max: 2.903e-01   RMS: 4.169e-02


 JobOver = TRUE
Archival summary:
1\1\qciep03\JobtypUnspecified\HF\STO-3G\46\jcartus\MonJun1812:39:332018MonJun1812:39:332018\0\\#,JobtypUnspecified,HF,STO-3G,\\0,1\C\H,1,1.07066\C,1,1.35887,2,116.965\H,3,0.933609,1,108.994,2,-38.15,0\H,3,1.25727,1,133.475,2,144.146,0\C,1,1.64444,2,111.874,3,124.36,0\H,6,1.2738,1,130.922,2,-123.249,0\C,6,1.41993,1,117.809,2,30.8963,0\H,8,1.07868,6,115.533,1,-0.637518,0\H,8,1.23736,6,129.894,1,-158.912,0\\HF=-152.830392\\@

 Total job time:  1010.04s(wall), 974.00s(cpu) 
 Mon Jun 18 12:39:33 2018

        *************************************************************
        *                                                           *
        *  Thank you very much for using Q-Chem.  Have a nice day.  *
        *                                                           *
        *************************************************************


*** MISSION COMPLETED -- STARFLEET OUT ***

0 sent ACK to 0 
now end server 0 ... 
