Process 0 of 1 is on qciep03 - thread support 0
initial socket setup ...start
initial socket setup ...done 
now start server 0 ... 
qciep03.tugraz.at 127.0.1
Q-Chem Developer Version! Running on 127.0.1.*
                  Welcome to Q-Chem
     A Quantum Leap Into The Future Of Chemistry


 Q-Chem 5.0, Q-Chem, Inc., Pleasanton, CA (2017)

 Yihan Shao,  Zhengting Gan,  E. Epifanovsky,  A. T. B. Gilbert,  M. Wormit,  
 J. Kussmann,  A. W. Lange,  A. Behn,  Jia Deng,  Xintian Feng,  D. Ghosh,  
 M. Goldey,  P. R. Horn,  L. D. Jacobson,  I. Kaliman,  T. Kus,  A. Landau,  
 Jie Liu,  E. I. Proynov,  R. M. Richard,  R. P. Steele,  E. J. Sundstrom,  
 H. L. Woodcock III,  P. M. Zimmerman,  D. Zuev,  B. Albrecht,  E. Alguire,  
 S. A. Baeppler,  D. Barton,  Z. Benda,  Y. A. Bernard,  E. J. Berquist,  
 K. B. Bravaya,  H. Burton,  D. Casanova,  Chun-Min Chang,  Yunqing Chen,  
 A. Chien,  K. D. Closser,  M. P. Coons,  S. Dasgupta,  A. L. Dempwolff,  
 M. Diedenhofen,  Hainam Do,  R. G. Edgar,  Po-Tung Fang,  S. Fatehi,  
 Qingguo Feng,  J. Fosso-Tande,  Qinghui Ge,  A. Ghysels,  G. Gidofalvi,  
 J. Gomes,  J. Gonthier,  A. Gunina,  M. W. D. Hanson-Heine,  
 P. H. P. Harbach,  A. W. Hauser,  J. E. Herr,  E. G. Hohenstein,  
 Z. C. Holden,  Kerwin Hui,  T.-C. Jagau,  Hyunjun Ji,  B. Kaduk,  
 K. Khistyaev,  Jaehoon Kim,  P. Klunzinger,  K. Koh,  D. Kosenkov,  
 L. Koulias,  T. Kowalczyk,  C. M. Krauter,  A. Kunitsa,  Ka Un Lao,  
 A. Laurent,  K. V. Lawler,  Joonho Lee,  D. Lefrancois,  S. Lehtola,  
 D. S. Levine,  Yi-Pei Li,  You-Sheng Lin,  Fenglai Liu,  E. Livshits,  
 A. Luenser,  P. Manohar,  E. Mansoor,  S. F. Manzer,  Shan-Ping Mao,  
 Yuezhi Mao,  N. Mardirossian,  A. V. Marenich,  T. Markovich,  
 L. A. Martinez-Martinez,  S. A. Maurer,  N. J. Mayhall,  S. C. McKenzie,  
 J.-M. Mewes,  A. F. Morrison,  J. W. Mullinax,  K. Nanda,  
 T. S. Nguyen-Beck,  R. Olivares-Amaya,  J. A. Parkhill,  T. M. Perrine,  
 F. Plasser,  S. Prager,  A. Prociuk,  E. Ramos,  D. R. Rehn,  F. Rob,  
 M. Schneider,  N. Sergueev,  S. M. Sharada,  S. Sharma,  D. W. Small,  
 T. Stauch,  T. Stein,  Yu-Chuan Su,  A. J. W. Thom,  A. Tkatchenko,  
 T. Tsuchimochi,  L. Vogt,  O. Vydrov,  M. A. Watson,  J. Wenzel,  
 M. de Wergifosse,  T. A. Wesolowski,  A. White,  J. Witte,  A. Yamada,  
 Jun Yang,  K. Yao,  S. Yeganeh,  S. R. Yost,  Zhi-Qiang You,  A. Zech,  
 Igor Ying Zhang,  Xing Zhang,  Yan Zhao,  Ying Zhu,  B. R. Brooks,  
 G. K. L. Chan,  C. J. Cramer,  M. S. Gordon,  W. J. Hehre,  A. Klamt,  
 M. W. Schmidt,  C. D. Sherrill,  D. G. Truhlar,  A. Aspuru-Guzik,  R. Baer,  
 A. T. Bell,  N. A. Besley,  Jeng-Da Chai,  R. A. DiStasio Jr.,  A. Dreuw,  
 B. D. Dunietz,  T. R. Furlani,  Chao-Ping Hsu,  Yousung Jung,  Jing Kong,  
 D. S. Lambrecht,  WanZhen Liang,  C. Ochsenfeld,  V. A. Rassolov,  
 L. V. Slipchenko,  J. E. Subotnik,  T. Van Voorhis,  J. M. Herbert,  
 A. I. Krylov,  P. M. W. Gill,  M. Head-Gordon

 Contributors to earlier versions of Q-Chem not listed above: 
 R. D. Adamson,  B. Austin,  J. Baker,  G. J. O. Beran,  K. Brandhorst,  
 S. T. Brown,  E. F. C. Byrd,  A. K. Chakraborty,  C.-L. Cheng,  
 Siu Hung Chien,  D. M. Chipman,  D. L. Crittenden,  H. Dachsel,  
 R. J. Doerksen,  A. D. Dutoi,  L. Fusti-Molnar,  W. A. Goddard III,  
 A. Golubeva-Zadorozhnaya,  S. R. Gwaltney,  G. Hawkins,  A. Heyden,  
 S. Hirata,  G. Kedziora,  F. J. Keil,  C. Kelley,  Jihan Kim,  R. A. King,  
 R. Z. Khaliullin,  P. P. Korambath,  W. Kurlancheek,  A. M. Lee,  M. S. Lee,  
 S. V. Levchenko,  Ching Yeh Lin,  D. Liotard,  R. C. Lochan,  I. Lotan,  
 P. E. Maslen,  N. Nair,  D. P. O'Neill,  D. Neuhauser,  E. Neuscamman,  
 C. M. Oana,  R. Olson,  B. Peters,  R. Peverati,  P. A. Pieniazek,  
 Y. M. Rhee,  J. Ritchie,  M. A. Rohrdanz,  E. Rosta,  N. J. Russ,  
 H. F. Schaefer III,  N. E. Schultz,  N. Shenvi,  A. C. Simmonett,  A. Sodt,  
 D. Stuck,  K. S. Thanthiriwatte,  V. Vanovschi,  Tao Wang,  A. Warshel,  
 C. F. Williams,  Q. Wu,  X. Xu,  W. Zhang

 Please cite Q-Chem as follows:
 Y. Shao et al., Mol. Phys. 113, 184-215 (2015)
 DOI: 10.1080/00268976.2014.952696

 Q-Chem 5.0.2 for Intel X86 EM64T Linux

 Parts of Q-Chem use Armadillo 5.200.1 (Boston Tea Smuggler).
 http://arma.sourceforge.net/

 Q-Chem begins on Mon Jun 18 12:48:45 2018  


Host: 0

     Scratch files written to /home/jcartus/scratch/Butadien_25.mol.dir//
 Using version located at /usr/local/qchem/bin/qchem

 Parallel job on  1  processors
Symmetry disabled for AIMD jobs.

Total Memory Limit in MB = 2000
Mega-Array Size in MB = 192

Checking the input file for inconsistencies... 	...done.
Finally everything over in PARseQInput

--------------------------------------------------------------
User input:
--------------------------------------------------------------
$rem
AIMD_STEPS                    400
FOCK_EXTRAP_POINTS            12
MAX_SCF_CYCLES                100
BASIS                         sto-3g
AIMD_INIT_VELOC               thermal
FOCK_EXTRAP_ORDER             6
AIMD_TEMP                     400
AIMD_METHOD                   bomd
TIME_STEP                     20
METHOD                        hf
JOBTYPE                       aimd
$end

$molecule
0 1
C    4.57455    0.28078    0.32857
C    3.44321    0.82503    -0.13331
H    5.50743    0.83443    0.28962
H    4.60502    -0.71737    0.75362
C    2.17575    0.13833    -0.10764
C    1.04261    0.68425    -0.56367
H    0.11009    0.13003    -0.52441
H    1.01034    1.68482    -0.98285
H    3.47038    1.83028    -0.54877
H    2.14981    -0.86892    0.30310
$end


--------------------------------------------------------------
 ----------------------------------------------------------------
             Standard Nuclear Orientation (Angstroms)
    I     Atom           X                Y                Z
 ----------------------------------------------------------------
    1      C       4.5745500000     0.2807800000     0.3285700000
    2      C       3.4432100000     0.8250300000    -0.1333100000
    3      H       5.5074300000     0.8344300000     0.2896200000
    4      H       4.6050200000    -0.7173700000     0.7536200000
    5      C       2.1757500000     0.1383300000    -0.1076400000
    6      C       1.0426100000     0.6842500000    -0.5636700000
    7      H       0.1100900000     0.1300300000    -0.5244100000
    8      H       1.0103400000     1.6848200000    -0.9828500000
    9      H       3.4703800000     1.8302800000    -0.5487700000
   10      H       2.1498100000    -0.8689200000     0.3031000000
 ----------------------------------------------------------------
 Nuclear Repulsion Energy =   104.1577906023 hartrees
 There are       15 alpha and       15 beta electrons
 Requested basis set is STO-3G
 There are 14 shells and 26 basis functions

 Total QAlloc Memory Limit   2000 MB
 Mega-Array Size       188 MB
 MEM_STATIC part       192 MB

finished with qalloc call

                       Distance Matrix (Angstroms)
             C (  1)   C (  2)   H (  3)   H (  4)   C (  5)   C (  6)
   C (  2)  1.337711
   H (  3)  1.085500  2.107122
   H (  4)  1.085311  2.124958  1.854110
   C (  5)  2.442297  1.441760  3.426728  2.715758
   C (  6)  3.665171  2.442930  4.548107  4.048525  1.337908
   H (  7)  4.547714  3.427196  5.503645  4.749299  2.107301  1.085493
   H (  8)  4.049042  2.716581  4.750385  4.659138  2.125042  1.085308
   H (  9)  2.095201  1.088059  2.417475  3.078010  2.175628  2.684711
   H ( 10)  2.683621  2.175501  3.764996  2.500798  1.088087  2.095118
             H (  7)   H (  8)   H (  9)
   H (  8)  1.854182
   H (  9)  3.766031  2.502275
   H ( 10)  2.417257  3.077929  3.123342

 Job number = 2, Threshold = 1.00E-11
Integral type ranges set in mkLRange.C for JobNum: 2  <1-6|1-6>
Symmetry turned off temporarily
 Using the largest function pair in Schwarz integrals
Total number of integrals generated =            3252
Symmetry turned back on
 A cutoff of  1.0D-11 yielded    102 shell pairs
 There are       372 function pairs
 Job number = 11, Threshold = 1.00E-11
Integral type ranges set in mkLRange.C for JobNum: 11  <1-6|7-7>
Total number of integrals generated =            3720
 Smallest overlap matrix eigenvalue = 1.84E-01
 Multipole matrices computed through 2nd order

 Scale SEOQF with 1.000000e-02/1.000000e-01/1.000000e+00

 Standard Electronic Orientation quadrupole field applied
 Nucleus-field energy     =    -0.0000000032 hartrees
 ENuRep (before)= 104.1577906023
 ENucField = -0.0000000032
 ENuRep (after) = 104.1577905991
 Guess from superposition of atomic densities
 Warning:  Energy on first SCF cycle will be non-variational
 SAD guess density has 30.000000 electrons

 ==================================================
    GEN_SCFMAN: A general SCF calculation manager  
                                                   
    Authors:                                       
        -- Eric Jon Sundstrom 2008-2014            
        -- Paul Horn 2010-2015                     
        -- Yuezhi Mao 2012-                        
        -- Dmitri Zuev 2014                        
        -- Alec White 2015-                        
        -- David Stuck 2015                        
        -- Shaama M.S. 2015                        
        -- Shane Yost 2015-                         
        -- Joonho Lee 2016-                        
        -- David Small 2016-                       
        -- Daniel Levine 2016-                     
        -- Susi Lehtola 2017-                      
        -- Hugh Burton 2017-                       
 ==================================================
 Hartree-Fock
Finding J and K together
 Job number = 22, Threshold = 1.00E-11
Integral type ranges set in mkLRange.C for JobNum: 22  <1-6|1-6>
 MakeJK  time:  CPU       0.16 s  wall       0.16 s
 A restricted SCF calculation will be
 performed using DIIS
 SCF converges when DIIS error is below 1.0e-08
 ---------------------------------------
  Cycle       Energy         DIIS error
 ---------------------------------------
Finding J and K together
 Job number = 22, Threshold = 1.00E-11
Integral type ranges set in mkLRange.C for JobNum: 22  <1-6|1-6>
 MakeJK  time:  CPU       0.18 s  wall       0.18 s
    1    -152.6467231019      2.15e-01  
Finding J and K together
 Job number = 22, Threshold = 1.00E-11
Integral type ranges set in mkLRange.C for JobNum: 22  <1-6|1-6>
 MakeJK  time:  CPU       0.19 s  wall       0.19 s
    2    -152.9904396117      1.29e-02  
Finding J and K together
 Job number = 22, Threshold = 1.00E-11
Integral type ranges set in mkLRange.C for JobNum: 22  <1-6|1-6>
 MakeJK  time:  CPU       0.20 s  wall       0.20 s
    3    -153.0145703344      3.50e-03  
Finding J and K together
 Job number = 22, Threshold = 1.00E-11
Integral type ranges set in mkLRange.C for JobNum: 22  <1-6|1-6>
 MakeJK  time:  CPU       0.19 s  wall       0.19 s
    4    -153.0163599538      1.28e-03  
Finding J and K together
 Job number = 22, Threshold = 1.00E-11
Integral type ranges set in mkLRange.C for JobNum: 22  <1-6|1-6>
 MakeJK  time:  CPU       0.18 s  wall       0.18 s
    5    -153.0165309493      9.61e-05  
Finding J and K together
 Job number = 22, Threshold = 1.00E-11
Integral type ranges set in mkLRange.C for JobNum: 22  <1-6|1-6>
 MakeJK  time:  CPU       0.18 s  wall       0.19 s
    6    -153.0165341418      1.29e-05  
Finding J and K together
 Job number = 22, Threshold = 1.00E-11
Integral type ranges set in mkLRange.C for JobNum: 22  <1-6|1-6>
 MakeJK  time:  CPU       0.19 s  wall       0.20 s
    7    -153.0165342018      1.48e-06  
Finding J and K together
 Job number = 22, Threshold = 1.00E-11
Integral type ranges set in mkLRange.C for JobNum: 22  <1-6|1-6>
 MakeJK  time:  CPU       0.16 s  wall       0.17 s
    8    -153.0165342023      1.05e-07  
Finding J and K together
 Job number = 22, Threshold = 1.00E-11
Integral type ranges set in mkLRange.C for JobNum: 22  <1-6|1-6>
 MakeJK  time:  CPU       0.16 s  wall       0.17 s
    9    -153.0165342023      3.27e-08  
Finding J and K together
 Job number = 22, Threshold = 1.00E-11
Integral type ranges set in mkLRange.C for JobNum: 22  <1-6|1-6>
 MakeJK  time:  CPU       0.17 s  wall       0.17 s
   10    -153.0165342023      1.41e-08  
   11    -153.0165342023      3.67e-09  Convergence criterion met
 ---------------------------------------
 SCF time:   CPU 1.98s  wall 2.00s 
 Total energy in the final basis set =     -153.0165342023
Wall  1 = 2
Clock 1 = 1.9767479897
 ==================================================
                  Done GEN_SCFMAN                  
 ==================================================

Symmetry turned off temporarily

 --------------------------------------------------------------

                    Orbital Energies (a.u.)
 --------------------------------------------------------------

 Alpha MOs
 -- Occupied --
-11.031 -11.030 -11.016 -11.016  -1.036  -0.942  -0.772  -0.708
 -0.591  -0.591  -0.498  -0.491  -0.443  -0.399  -0.261
 -- Virtual --
  0.243   0.421   0.593   0.674   0.684   0.697   0.699   0.880
  0.910   1.025   1.078
 --------------------------------------------------------------

          Ground-State Mulliken Net Atomic Charges

     Atom                 Charge (a.u.)
  ----------------------------------------
      1 C                    -0.124574
      2 C                    -0.059608
      3 H                     0.060919
      4 H                     0.060786
      5 C                    -0.059558
      6 C                    -0.124607
      7 H                     0.060923
      8 H                     0.060758
      9 H                     0.062506
     10 H                     0.062456
  ----------------------------------------
  Sum of atomic charges =    -0.000000

 -----------------------------------------------------------------
                    Cartesian Multipole Moments
 -----------------------------------------------------------------
    Charge (ESU x 10^10)
                -0.0000
    Dipole Moment (Debye)
         X       0.0004      Y       0.0001      Z       0.0006
       Tot       0.0007
    Quadrupole Moments (Debye-Ang)
        XX     -22.7834     XY       0.2091     YY     -22.5006
        XZ       0.4007     YZ      -1.0606     ZZ     -24.6311
    Octopole Moments (Debye-Ang^2)
       XXX    -192.0100    XXY      -9.8056    XYY     -63.0099
       YYY     -32.5436    XXZ       4.9619    XYZ      -2.8178
       YYZ       1.6501    XZZ     -69.2723    YZZ     -11.6259
       ZZZ       8.7889
    Hexadecapole Moments (Debye-Ang^3)
      XXXX   -1386.8207   XXXY     -76.4083   XXYY    -243.1268
      XYYY     -86.7799   YYYY     -86.1469   XXXZ       1.6679
      XXYZ      -4.2031   XYYZ      -5.4042   YYYZ       9.6528
      XXZZ    -257.8094   XYZZ     -31.8100   YYZZ     -21.6240
      XZZZ      -9.8771   YZZZ      13.1267   ZZZZ     -44.5853
 -----------------------------------------------------------------
drvman_main.C: 73: calling DrvMan  Calculating analytic gradient of the SCF energy
drvman.C : 218: Calculating analytic gradient of the SCF energy
drvman.C: 244: calling SCF_Grad for normal SCF gradient
 Job number = 111, Threshold = 1.00E-11
Integral type ranges set in mkLRange.C for JobNum: 11  <1-6|7-7>
Finding J and K together
 ML is being used
 Job number = 122, Threshold = 1.00E-11
Integral type ranges set in mkLRange.C for JobNum: 22  <1-6|1-6>
Total number of integrals generated =           70483
 MakeJK  time:  CPU       0.45 s  wall       0.46 s
 Gradient of SCF Energy
            1           2           3           4           5           6
    1   0.0233625  -0.0653148   0.0015922  -0.0003996   0.0656840  -0.0237268
    2  -0.0184662   0.0020208   0.0046080  -0.0035205  -0.0020583   0.0185133
    3   0.0125217  -0.0143009  -0.0015997   0.0014435   0.0142645  -0.0125173
            7           8           9          10
    1  -0.0015892   0.0003986   0.0026062  -0.0026129
    2  -0.0046117   0.0035577   0.0039201  -0.0039632
    3   0.0015826  -0.0013370  -0.0011330   0.0010755
 Max gradient component =       6.568E-02
 RMS gradient           =       1.935E-02
drvman.C: 248: out of SCF_Grad for normal SCF gradient
 Gradient time:  CPU 0.47 s  wall 0.48 s
 ------------------------------------------------------------------------------
                     drvman        : Timing summary (seconds)
 ------------------------------------------------------------------------------
     job step          cpu (% of tot)      sys (% of tot)     wall (% of tot)
 ------------------------------------------------------------------------------
 ------------------------------------------------------------------------------
   Grand Totals     0.4680E+00          0.1000E-05          0.4781E+00
 ------------------------------------------------------------------------------
drvman_main.C: 77: out of DrvMan =======================================================
            AB INITIO MOLECULAR DYNAMICS
=======================================================
Created directory /home/jcartus/scratch/Butadien_25.mol.dir/AIMD
AIMD will take 400 BOMD steps Velocity Verlet integration
Time step = 20.00000 a.u. ( = 0.48378 fs)
Total simulation time requested = 193.511 fs
Integral threshold = 10**(-11)
SCF convergence threshold = 10**(-8)
Generating viewable xyz trajectory,
 file (in Angstroms) at AIMD/View.xyz
Choosing nuclear velocities from Maxwell-Boltzmann
Velocities sampled from Maxwell-Boltzmann at T = 400.0 K
sqrt(kT/m) and (vx,vy,vz) for each atom:
  1   2.4064e-04  -5.10e-04  -7.91e-07   5.85e-05 
  2   2.4064e-04   5.01e-04   3.12e-04   1.51e-04 
  3   8.3036e-04  -6.28e-05   7.35e-04  -3.04e-04 
  4   8.3036e-04  -7.99e-04   1.12e-03  -1.01e-03 
  5   2.4064e-04   2.69e-05  -1.96e-04  -3.38e-04 
  6   2.4064e-04  -1.28e-04   2.17e-04   1.97e-04 
  7   8.3036e-04   1.12e-03  -1.49e-03  -8.13e-04 
  8   8.3036e-04   5.36e-04  -1.37e-04  -9.96e-04 
  9   8.3036e-04  -8.10e-04  -7.88e-04  -2.05e-04 
 10   8.3036e-04  -1.02e-03  -1.34e-03  -5.46e-04 
T(nuclear) = 0.02204218 a.u.
v(c.o.m.) = ( -4.3801e-05,   3.8456e-05,  -5.6913e-05)
T(c.o.m.) = 3.26919e-04 a.u.
kT/2 = 0.000633 a.u.
Tx   = 0.009340 a.u.
Ty   = 0.007897 a.u.
Tz   = 0.004805 a.u.
Mean velocities (a.u.):  -1.1421e-04  -1.5608e-04  -3.8008e-04
Removing c.o.m. velocity
T(nuclear) = 0.02112034 a.u.
v(c.o.m.) = ( -2.2538e-21,  -4.0568e-20,  -5.6344e-21)
T(c.o.m.) = 8.28848e-35 a.u.
kT   = 0.001267 a.u. = 0.79 kcal/mol
Tx   = 0.009168 a.u. = 5.75 kcal/mol
Ty   = 0.008736 a.u. = 5.48 kcal/mol
Tz   = 0.003216 a.u. = 2.02 kcal/mol
Initial velocities in m/s
  1     -1.0731e+03     -3.9621e+01      1.8396e+02 
  2      1.1384e+03      6.4377e+02      3.8686e+02 
  3      3.7638e+02      1.1570e+03      3.1672e+00 
  4     -1.2339e+03      1.9971e+03     -1.5326e+03 
  5      1.0191e+02     -4.6584e+02     -6.8306e+02 
  6     -2.3662e+02      4.3685e+02      4.8671e+02 
  7      2.9689e+03     -3.7029e+03     -1.1120e+03 
  8      1.6859e+03     -7.5170e+02     -1.5110e+03 
  9     -1.2572e+03     -2.1756e+03      2.2022e+02 
 10     -1.7134e+03     -3.3722e+03     -5.2667e+02 
----------------------------------------------------------------------------
       Nuclear coordinates (Angst) and velocities (a.u.)
----------------------------------------------------------------------------
             x        y        z            v_x         v_y        v_z
----------------------------------------------------------------------------
1      C    4.5746   0.2808   0.3286    -4.9051e-04  -1.8111e-05   8.4089e-05
2      C    3.4432   0.8250  -0.1333     5.2035e-04   2.9427e-04   1.7684e-04
3      H    5.5074   0.8344   0.2896     1.7205e-04   5.2885e-04   1.4477e-06
4      H    4.6050  -0.7174   0.7536    -5.6401e-04   9.1290e-04  -7.0055e-04
5      C    2.1757   0.1383  -0.1076     4.6584e-05  -2.1294e-04  -3.1223e-04
6      C    1.0426   0.6843  -0.5637    -1.0816e-04   1.9969e-04   2.2248e-04
7      H    0.1101   0.1300  -0.5244     1.3571e-03  -1.6926e-03  -5.0828e-04
8      H    1.0103   1.6848  -0.9829     7.7062e-04  -3.4361e-04  -6.9069e-04
9      H    3.4704   1.8303  -0.5488    -5.7465e-04  -9.9449e-04   1.0067e-04
10     H    2.1498  -0.8689   0.3031    -7.8319e-04  -1.5415e-03  -2.4074e-04
----------------------------------------------------------------------------
Write nuclear velocities every 1 time steps

TIME STEP #1 (t = 0.000 a.u. = 0.00000 fs)
--------------------------------------
 Instantaneous Temperature = 444.6 K
 ----------------------------------------------------------------
             Standard Nuclear Orientation (Angstroms)
    I     Atom           X                Y                Z
 ----------------------------------------------------------------
    1      C       4.5692455987     0.2806776689     0.3293993812
    2      C       3.4490331435     0.8281346335    -0.1313692541
    3      H       5.5091591332     0.8397616374     0.2897274758
    4      H       4.5990738473    -0.7075054888     0.7461225801
    5      C       2.1759252304     0.1360863473    -0.1110135017
    6      C       1.0415800755     0.6862738141    -0.5612548259
    7      H       0.1245445779     0.1123820132    -0.5298805671
    8      H       1.0184729002     1.6809784761    -0.9900829447
    9      H       3.4641480554     1.8195289516    -0.5476393342
   10      H       2.1416715875    -0.8850057467     0.3004901105
 ----------------------------------------------------------------
 Nuclear Repulsion Energy =   104.2286299544 hartrees
 There are       15 alpha and       15 beta electrons

                       Distance Matrix (Angstroms)
             C (  1)   C (  2)   H (  3)   H (  4)   C (  5)   C (  6)
   C (  2)  1.329245
   H (  3)  1.094343  2.102755
   H (  4)  1.072872  2.109686  1.852184
   C (  5)  2.437797  1.449189  3.430190  2.705176
   C (  6)  3.660901  2.449644  4.550494  4.038269  1.338717
   H (  7)  4.530127  3.423936  5.494990  4.724596  2.093842  1.082262
   H (  8)  4.038547  2.715208  4.744663  4.641117  2.121120  1.083450
   H (  9)  2.087702  1.075347  2.417271  3.057414  2.164287  2.674563
   H ( 10)  2.693097  2.197850  3.783505  2.503781  1.101425  2.102790
             H (  7)   H (  8)   H (  9)
   H (  8)  1.863166
   H (  9)  3.750682  2.489233
   H ( 10)  2.398562  3.084060  3.127743

 Applying Cartesian multipole field
    Component          Value
    ---------          -----
     (2,0,0)        1.00000E-12
     (0,2,0)        2.00000E-11
     (0,0,2)       -3.00000E-10
 Nucleus-field energy     =    -0.0000000032 hartrees
 ENuRep (before)= 104.2286299544
 ENucField = -0.0000000032
 ENuRep (after) = 104.2286299512
 Job number = 2, Threshold = 1.00E-11
Integral type ranges set in mkLRange.C for JobNum: 2  <1-6|1-6>
Symmetry turned off temporarily
Symmetry turned back on
 Job number = 11, Threshold = 1.00E-11
Integral type ranges set in mkLRange.C for JobNum: 11  <1-6|7-7>
 Smallest overlap matrix eigenvalue = 1.82E-01
 Multipole matrices computed through 2nd order
 Guess from superposition of atomic densities
 Warning:  Energy on first SCF cycle will be non-variational
 SAD guess density has 30.000000 electrons
 SCF convergence criterion is 10**(-8)
 A restricted Hartree-Fock SCF calculation will be
 performed using Pulay DIIS extrapolation
 SCF converges when DIIS error is below 1.0E-08
Finding J and K together
 Job number = 22, Threshold = 1.00E-11
Integral type ranges set in mkLRange.C for JobNum: 22  <1-6|1-6>
 MakeJK  time:  CPU       0.14 s  wall       0.15 s
Fock build time:  0.14 s (CPU) 0.15 s (wall)
DIIS Errors:  Max 1.11E+00 RMS 2.16E-01

Current DIIS subspace size = 1
REM_GRID_RESTART_DIIS = 0

 ---------------------------------------
  Cycle       Energy         DIIS Error
 ---------------------------------------
    1    -152.6578563464      2.16E-01  00000
Finding J and K together
 Job number = 22, Threshold = 1.00E-11
Integral type ranges set in mkLRange.C for JobNum: 22  <1-6|1-6>
 MakeJK  time:  CPU       0.15 s  wall       0.15 s
Fock build time:  0.15 s (CPU) 0.15 s (wall)
DIIS Errors:  Max 6.05E-02 RMS 1.29E-02

Current DIIS subspace size = 2
REM_GRID_RESTART_DIIS = 0

    2    -152.9906165297      1.29E-02  00000
Finding J and K together
 Job number = 22, Threshold = 1.00E-11
Integral type ranges set in mkLRange.C for JobNum: 22  <1-6|1-6>
 MakeJK  time:  CPU       0.16 s  wall       0.16 s
Fock build time:  0.16 s (CPU) 0.16 s (wall)
DIIS Errors:  Max 1.89E-02 RMS 3.48E-03

Current DIIS subspace size = 3
REM_GRID_RESTART_DIIS = 0

    3    -153.0146558533      3.48E-03  00000
Finding J and K together
 Job number = 22, Threshold = 1.00E-11
Integral type ranges set in mkLRange.C for JobNum: 22  <1-6|1-6>
 MakeJK  time:  CPU       0.12 s  wall       0.12 s
Fock build time:  0.12 s (CPU) 0.12 s (wall)
DIIS Errors:  Max 6.87E-03 RMS 1.25E-03

Current DIIS subspace size = 4
REM_GRID_RESTART_DIIS = 0

    4    -153.0164282901      1.25E-03  00000
Finding J and K together
 Job number = 22, Threshold = 1.00E-11
Integral type ranges set in mkLRange.C for JobNum: 22  <1-6|1-6>
 MakeJK  time:  CPU       0.13 s  wall       0.13 s
Fock build time:  0.13 s (CPU) 0.13 s (wall)
DIIS Errors:  Max 9.05E-04 RMS 9.35E-05

Current DIIS subspace size = 5
REM_GRID_RESTART_DIIS = 0

    5    -153.0165914483      9.35E-05  00000
Finding J and K together
 Job number = 22, Threshold = 1.00E-11
Integral type ranges set in mkLRange.C for JobNum: 22  <1-6|1-6>
 MakeJK  time:  CPU       0.14 s  wall       0.14 s
Fock build time:  0.14 s (CPU) 0.14 s (wall)
DIIS Errors:  Max 1.20E-04 RMS 1.27E-05

Current DIIS subspace size = 6
REM_GRID_RESTART_DIIS = 0

    6    -153.0165943990      1.27E-05  00000
Finding J and K together
 Job number = 22, Threshold = 1.00E-11
Integral type ranges set in mkLRange.C for JobNum: 22  <1-6|1-6>
 MakeJK  time:  CPU       0.12 s  wall       0.12 s
Fock build time:  0.12 s (CPU) 0.12 s (wall)
DIIS Errors:  Max 1.21E-05 RMS 2.96E-06

Current DIIS subspace size = 7
REM_GRID_RESTART_DIIS = 0

    7    -153.0165944534      2.96E-06  00000
Finding J and K together
 Job number = 22, Threshold = 1.00E-11
Integral type ranges set in mkLRange.C for JobNum: 22  <1-6|1-6>
 MakeJK  time:  CPU       0.13 s  wall       0.13 s
Fock build time:  0.13 s (CPU) 0.13 s (wall)
DIIS Errors:  Max 4.07E-06 RMS 7.25E-07

Current DIIS subspace size = 8
REM_GRID_RESTART_DIIS = 0

    8    -153.0165944545      7.25E-07  00000
Finding J and K together
 Job number = 22, Threshold = 1.00E-11
Integral type ranges set in mkLRange.C for JobNum: 22  <1-6|1-6>
 MakeJK  time:  CPU       0.13 s  wall       0.13 s
Fock build time:  0.13 s (CPU) 0.13 s (wall)
DIIS Errors:  Max 7.36E-07 RMS 1.34E-07

Current DIIS subspace size = 9
REM_GRID_RESTART_DIIS = 0

    9    -153.0165944546      1.34E-07  00000
Finding J and K together
 Job number = 22, Threshold = 1.00E-11
Integral type ranges set in mkLRange.C for JobNum: 22  <1-6|1-6>
 MakeJK  time:  CPU       0.18 s  wall       0.18 s
Fock build time:  0.18 s (CPU) 0.18 s (wall)
DIIS Errors:  Max 3.08E-07 RMS 5.11E-08

Current DIIS subspace size = 10
REM_GRID_RESTART_DIIS = 0

   10    -153.0165944546      5.11E-08  00000
Finding J and K together
 Job number = 22, Threshold = 1.00E-11
Integral type ranges set in mkLRange.C for JobNum: 22  <1-6|1-6>
 MakeJK  time:  CPU       0.12 s  wall       0.12 s
Fock build time:  0.12 s (CPU) 0.12 s (wall)
DIIS Errors:  Max 6.99E-08 RMS 1.31E-08

Current DIIS subspace size = 11
REM_GRID_RESTART_DIIS = 0

   11    -153.0165944546      1.31E-08  00000
Finding J and K together
 Job number = 22, Threshold = 1.00E-11
Integral type ranges set in mkLRange.C for JobNum: 22  <1-6|1-6>
 MakeJK  time:  CPU       0.13 s  wall       0.13 s
Fock build time:  0.13 s (CPU) 0.13 s (wall)
DIIS Errors:  Max 6.07E-09 RMS 1.38E-09

Current DIIS subspace size = 12
REM_GRID_RESTART_DIIS = 0

   12    -153.0165944546      1.38E-09  00000 Convergence criterion met
 ---------------------------------------
 SCF time:  CPU 1.67 s  wall 1.70 s
 SCF   energy in the final basis set = -153.01659445
 Total energy in the final basis set = -153.01659445
drvman_main.C: 73: calling DrvMan  Calculating analytic gradient of the SCF energy
drvman.C : 218: Calculating analytic gradient of the SCF energy
drvman.C: 244: calling SCF_Grad for normal SCF gradient
 Job number = 111, Threshold = 1.00E-11
Integral type ranges set in mkLRange.C for JobNum: 11  <1-6|7-7>
Finding J and K together
 ML is being used
 Job number = 122, Threshold = 1.00E-11
Integral type ranges set in mkLRange.C for JobNum: 22  <1-6|1-6>
 MakeJK  time:  CPU       0.46 s  wall       0.50 s
 Gradient of SCF Energy
            1           2           3           4           5           6
    1   0.0058968  -0.0471092   0.0079165  -0.0006659   0.0626807  -0.0305803
    2  -0.0307460   0.0136129   0.0092480   0.0070285   0.0039326   0.0227090
    3   0.0142038  -0.0144396  -0.0023133  -0.0032723   0.0094726  -0.0116064
            7           8           9          10
    1   0.0025987   0.0026285   0.0008143  -0.0041801
    2  -0.0059915   0.0020312  -0.0070574  -0.0147674
    3   0.0018161  -0.0016075   0.0026049   0.0051417
 Max gradient component =       6.268E-02
 RMS gradient           =       1.826E-02
drvman.C: 248: out of SCF_Grad for normal SCF gradient
 Gradient time:  CPU 0.48 s  wall 0.52 s
 ------------------------------------------------------------------------------
                     drvman        : Timing summary (seconds)
 ------------------------------------------------------------------------------
     job step          cpu (% of tot)      sys (% of tot)     wall (% of tot)
 ------------------------------------------------------------------------------
 ------------------------------------------------------------------------------
   Grand Totals     0.4800E+00          0.2000E-05          0.5202E+00
 ------------------------------------------------------------------------------
drvman_main.C: 77: out of DrvMan  Time for this dynamics step: 2.2 s (CPU) 2.3 s (wall)

TIME STEP #2 (t = 20.000 a.u. = 0.48378 fs)
--------------------------------------
 Instantaneous Temperature = 446.1 K
 ----------------------------------------------------------------
             Standard Nuclear Orientation (Angstroms)
    I     Atom           X                Y                Z
 ----------------------------------------------------------------
    1      C       4.5638841369     0.2808728530     0.3300913189
    2      C       3.4553121404     0.8311075410    -0.1292887834
    3      H       5.5099761566     0.8440277594     0.2901014854
    4      H       4.5932044166    -0.6984507761     0.7390021830
    5      C       2.1754939289     0.1338046411    -0.1144786652
    6      C       1.0408460624     0.6880778834    -0.5587273424
    7      H       0.1386997462     0.0954243408    -0.5355603731
    8      H       1.0263029516     1.6769029199    -0.9971306774
    9      H       3.4578222935     1.8095910257    -0.5468087983
   10      H       2.1340147911    -0.8993900524     0.2972878118
 ----------------------------------------------------------------
 Nuclear Repulsion Energy =   104.3132955275 hartrees
 There are       15 alpha and       15 beta electrons

                       Distance Matrix (Angstroms)
             C (  1)   C (  2)   H (  3)   H (  4)   C (  5)   C (  6)
   C (  2)  1.320121
   H (  3)  1.101741  2.097069
   H (  4)  1.061670  2.094821  1.849655
   C (  5)  2.433861  1.457527  3.433202  2.695627
   C (  6)  3.656174  2.456526  4.551698  4.028128  1.338657
   H (  7)  4.512871  3.421433  5.485685  4.700783  2.080220  1.079649
   H (  8)  4.028014  2.714517  4.738562  4.623770  2.116806  1.081750
   H (  9)  2.080698  1.063842  2.417450  3.038532  2.153958  2.664528
   H ( 10)  2.701548  2.218652  3.799562  2.506612  1.112997  2.108989
             H (  7)   H (  8)   H (  9)
   H (  8)  1.871353
   H (  9)  3.735648  2.476425
   H ( 10)  2.380037  3.088662  3.131061

 Applying Cartesian multipole field
    Component          Value
    ---------          -----
     (2,0,0)        1.00000E-12
     (0,2,0)        2.00000E-11
     (0,0,2)       -3.00000E-10
 Nucleus-field energy     =    -0.0000000032 hartrees
 ENuRep (before)= 104.3132955275
 ENucField = -0.0000000032
 ENuRep (after) = 104.3132955243
 Job number = 2, Threshold = 1.00E-11
Integral type ranges set in mkLRange.C for JobNum: 2  <1-6|1-6>
Symmetry turned off temporarily
Symmetry turned back on
 Job number = 11, Threshold = 1.00E-11
Integral type ranges set in mkLRange.C for JobNum: 11  <1-6|7-7>
 Smallest overlap matrix eigenvalue = 1.79E-01
 Multipole matrices computed through 2nd order
 Guess from superposition of atomic densities
 Warning:  Energy on first SCF cycle will be non-variational
 SAD guess density has 30.000000 electrons
 SCF convergence criterion is 10**(-8)
 A restricted Hartree-Fock SCF calculation will be
 performed using Pulay DIIS extrapolation
 SCF converges when DIIS error is below 1.0E-08
Finding J and K together
 Job number = 22, Threshold = 1.00E-11
Integral type ranges set in mkLRange.C for JobNum: 22  <1-6|1-6>
 MakeJK  time:  CPU       0.12 s  wall       0.12 s
Fock build time:  0.12 s (CPU) 0.12 s (wall)
DIIS Errors:  Max 1.13E+00 RMS 2.17E-01

Current DIIS subspace size = 1
REM_GRID_RESTART_DIIS = 0

 ---------------------------------------
  Cycle       Energy         DIIS Error
 ---------------------------------------
    1    -152.6718191511      2.17E-01  00000
Finding J and K together
 Job number = 22, Threshold = 1.00E-11
Integral type ranges set in mkLRange.C for JobNum: 22  <1-6|1-6>
 MakeJK  time:  CPU       0.18 s  wall       0.19 s
Fock build time:  0.18 s (CPU) 0.19 s (wall)
DIIS Errors:  Max 6.05E-02 RMS 1.29E-02

Current DIIS subspace size = 2
REM_GRID_RESTART_DIIS = 0

    2    -152.9895596045      1.29E-02  00000
Finding J and K together
 Job number = 22, Threshold = 1.00E-11
Integral type ranges set in mkLRange.C for JobNum: 22  <1-6|1-6>
 MakeJK  time:  CPU       0.18 s  wall       0.19 s
Fock build time:  0.19 s (CPU) 0.19 s (wall)
DIIS Errors:  Max 1.90E-02 RMS 3.47E-03

Current DIIS subspace size = 3
REM_GRID_RESTART_DIIS = 0

    3    -153.0135208416      3.47E-03  00000
Finding J and K together
 Job number = 22, Threshold = 1.00E-11
Integral type ranges set in mkLRange.C for JobNum: 22  <1-6|1-6>
 MakeJK  time:  CPU       0.19 s  wall       0.20 s
Fock build time:  0.19 s (CPU) 0.20 s (wall)
DIIS Errors:  Max 7.01E-03 RMS 1.22E-03

Current DIIS subspace size = 4
REM_GRID_RESTART_DIIS = 0

    4    -153.0152759725      1.22E-03  00000
Finding J and K together
 Job number = 22, Threshold = 1.00E-11
Integral type ranges set in mkLRange.C for JobNum: 22  <1-6|1-6>
 MakeJK  time:  CPU       0.14 s  wall       0.15 s
Fock build time:  0.14 s (CPU) 0.15 s (wall)
DIIS Errors:  Max 8.67E-04 RMS 9.13E-05

Current DIIS subspace size = 5
REM_GRID_RESTART_DIIS = 0

    5    -153.0154318507      9.13E-05  00000
Finding J and K together
 Job number = 22, Threshold = 1.00E-11
Integral type ranges set in mkLRange.C for JobNum: 22  <1-6|1-6>
 MakeJK  time:  CPU       0.13 s  wall       0.13 s
Fock build time:  0.13 s (CPU) 0.13 s (wall)
DIIS Errors:  Max 1.18E-04 RMS 1.37E-05

Current DIIS subspace size = 6
REM_GRID_RESTART_DIIS = 0

    6    -153.0154345528      1.37E-05  00000
Finding J and K together
 Job number = 22, Threshold = 1.00E-11
Integral type ranges set in mkLRange.C for JobNum: 22  <1-6|1-6>
 MakeJK  time:  CPU       0.15 s  wall       0.15 s
Fock build time:  0.15 s (CPU) 0.15 s (wall)
DIIS Errors:  Max 1.88E-05 RMS 4.42E-06

Current DIIS subspace size = 7
REM_GRID_RESTART_DIIS = 0

    7    -153.0154346072      4.42E-06  00000
Finding J and K together
 Job number = 22, Threshold = 1.00E-11
Integral type ranges set in mkLRange.C for JobNum: 22  <1-6|1-6>
 MakeJK  time:  CPU       0.15 s  wall       0.15 s
Fock build time:  0.15 s (CPU) 0.15 s (wall)
DIIS Errors:  Max 4.89E-06 RMS 7.62E-07

Current DIIS subspace size = 8
REM_GRID_RESTART_DIIS = 0

    8    -153.0154346097      7.62E-07  00000
Finding J and K together
 Job number = 22, Threshold = 1.00E-11
Integral type ranges set in mkLRange.C for JobNum: 22  <1-6|1-6>
 MakeJK  time:  CPU       0.14 s  wall       0.14 s
Fock build time:  0.14 s (CPU) 0.14 s (wall)
DIIS Errors:  Max 1.64E-06 RMS 2.61E-07

Current DIIS subspace size = 9
REM_GRID_RESTART_DIIS = 0

    9    -153.0154346099      2.61E-07  00000
Finding J and K together
 Job number = 22, Threshold = 1.00E-11
Integral type ranges set in mkLRange.C for JobNum: 22  <1-6|1-6>
 MakeJK  time:  CPU       0.15 s  wall       0.15 s
Fock build time:  0.15 s (CPU) 0.15 s (wall)
DIIS Errors:  Max 6.38E-07 RMS 9.75E-08

Current DIIS subspace size = 10
REM_GRID_RESTART_DIIS = 0

   10    -153.0154346099      9.75E-08  00000
Finding J and K together
 Job number = 22, Threshold = 1.00E-11
Integral type ranges set in mkLRange.C for JobNum: 22  <1-6|1-6>
 MakeJK  time:  CPU       0.16 s  wall       0.16 s
Fock build time:  0.16 s (CPU) 0.16 s (wall)
DIIS Errors:  Max 5.60E-08 RMS 1.23E-08

Current DIIS subspace size = 11
REM_GRID_RESTART_DIIS = 0

   11    -153.0154346099      1.23E-08  00000
Finding J and K together
 Job number = 22, Threshold = 1.00E-11
Integral type ranges set in mkLRange.C for JobNum: 22  <1-6|1-6>
 MakeJK  time:  CPU       0.15 s  wall       0.15 s
Fock build time:  0.15 s (CPU) 0.15 s (wall)
DIIS Errors:  Max 1.30E-08 RMS 2.46E-09

Current DIIS subspace size = 12
REM_GRID_RESTART_DIIS = 0

   12    -153.0154346099      2.46E-09  00000 Convergence criterion met
 ---------------------------------------
 SCF time:  CPU 1.88 s  wall 1.91 s
 SCF   energy in the final basis set = -153.01543461
 Total energy in the final basis set = -153.01543461
drvman_main.C: 73: calling DrvMan  Calculating analytic gradient of the SCF energy
drvman.C : 218: Calculating analytic gradient of the SCF energy
drvman.C: 244: calling SCF_Grad for normal SCF gradient
 Job number = 111, Threshold = 1.00E-11
Integral type ranges set in mkLRange.C for JobNum: 11  <1-6|7-7>
Finding J and K together
 ML is being used
 Job number = 122, Threshold = 1.00E-11
Integral type ranges set in mkLRange.C for JobNum: 22  <1-6|1-6>
 MakeJK  time:  CPU       0.41 s  wall       0.43 s
 Gradient of SCF Energy
            1           2           3           4           5           6
    1  -0.0114775  -0.0273810   0.0129300  -0.0008669   0.0579762  -0.0357245
    2  -0.0409464   0.0240832   0.0130285   0.0171143   0.0083630   0.0263653
    3   0.0149572  -0.0138032  -0.0029368  -0.0077092   0.0049554  -0.0102943
            7           8           9          10
    1   0.0063525   0.0046568  -0.0008498  -0.0056159
    2  -0.0073524   0.0005576  -0.0176254  -0.0235879
    3   0.0020549  -0.0018520   0.0062632   0.0083647
 Max gradient component =       5.798E-02
 RMS gradient           =       1.908E-02
drvman.C: 248: out of SCF_Grad for normal SCF gradient
 Gradient time:  CPU 0.43 s  wall 0.45 s
 ------------------------------------------------------------------------------
                     drvman        : Timing summary (seconds)
 ------------------------------------------------------------------------------
     job step          cpu (% of tot)      sys (% of tot)     wall (% of tot)
 ------------------------------------------------------------------------------
 ------------------------------------------------------------------------------
   Grand Totals     0.4280E+00          0.2000E-05          0.4462E+00
 ------------------------------------------------------------------------------
drvman_main.C: 77: out of DrvMan  Time for this dynamics step: 2.3 s (CPU) 2.4 s (wall)

TIME STEP #3 (t = 40.000 a.u. = 0.96755 fs)
--------------------------------------
 Instantaneous Temperature = 422.4 K
 ----------------------------------------------------------------
             Standard Nuclear Orientation (Angstroms)
    I     Atom           X                Y                Z
 ----------------------------------------------------------------
    1      C       4.5586337372     0.2814642561     0.3306385228
    2      C       3.4618560907     0.8338474063    -0.1270747457
    3      H       5.5093034288     0.8467927808     0.2908138577
    4      H       4.5874348661    -0.6913679114     0.7327700123
    5      C       2.1745016187     0.1314420106    -0.1179917796
    6      C       1.0404577383     0.6896268279    -0.5561002462
    7      H       0.1521230026     0.0793137791    -0.5414769350
    8      H       1.0335964685     1.6727631133    -1.0039650336
    9      H       3.4515944405     1.8016838359    -0.5466998837
   10      H       2.1270050355    -0.9110566539     0.2931217605
 ----------------------------------------------------------------
 Nuclear Repulsion Energy =   104.4055851132 hartrees
 There are       15 alpha and       15 beta electrons

                       Distance Matrix (Angstroms)
             C (  1)   C (  2)   H (  3)   H (  4)   C (  5)   C (  6)
   C (  2)  1.310553
   H (  3)  1.106777  2.089698
   H (  4)  1.053063  2.081476  1.846918
   C (  5)  2.430609  1.466539  3.435077  2.687575
   C (  6)  3.651091  2.463338  4.551104  4.018629  1.337746
   H (  7)  4.496531  3.419851  5.475501  4.678637  2.066899  1.077884
   H (  8)  4.017806  2.714620  4.731874  4.608159  2.112412  1.080364
   H (  9)  2.075169  1.054940  2.418142  3.023654  2.145802  2.655248
   H ( 10)  2.708566  2.236757  3.811821  2.509037  1.121639  2.112806
             H (  7)   H (  8)   H (  9)
   H (  8)  1.878822
   H (  9)  3.721975  2.464229
   H ( 10)  2.361683  3.090971  3.133496

 Applying Cartesian multipole field
    Component          Value
    ---------          -----
     (2,0,0)        1.00000E-12
     (0,2,0)        2.00000E-11
     (0,0,2)       -3.00000E-10
 Nucleus-field energy     =    -0.0000000032 hartrees
 ENuRep (before)= 104.4055851132
 ENucField = -0.0000000032
 ENuRep (after) = 104.4055851101
 Job number = 2, Threshold = 1.00E-11
Integral type ranges set in mkLRange.C for JobNum: 2  <1-6|1-6>
Symmetry turned off temporarily
Symmetry turned back on
 Job number = 11, Threshold = 1.00E-11
Integral type ranges set in mkLRange.C for JobNum: 11  <1-6|7-7>
 Smallest overlap matrix eigenvalue = 1.76E-01
 Multipole matrices computed through 2nd order
 Guess from superposition of atomic densities
 Warning:  Energy on first SCF cycle will be non-variational
 SAD guess density has 30.000000 electrons
 SCF convergence criterion is 10**(-8)
 A restricted Hartree-Fock SCF calculation will be
 performed using Pulay DIIS extrapolation
 SCF converges when DIIS error is below 1.0E-08
Finding J and K together
 Job number = 22, Threshold = 1.00E-11
Integral type ranges set in mkLRange.C for JobNum: 22  <1-6|1-6>
 MakeJK  time:  CPU       0.10 s  wall       0.10 s
Fock build time:  0.10 s (CPU) 0.10 s (wall)
DIIS Errors:  Max 1.15E+00 RMS 2.18E-01

Current DIIS subspace size = 1
REM_GRID_RESTART_DIIS = 0

 ---------------------------------------
  Cycle       Energy         DIIS Error
 ---------------------------------------
    1    -152.6873414063      2.18E-01  00000
Finding J and K together
 Job number = 22, Threshold = 1.00E-11
Integral type ranges set in mkLRange.C for JobNum: 22  <1-6|1-6>
 MakeJK  time:  CPU       0.13 s  wall       0.14 s
Fock build time:  0.13 s (CPU) 0.14 s (wall)
DIIS Errors:  Max 6.04E-02 RMS 1.29E-02

Current DIIS subspace size = 2
REM_GRID_RESTART_DIIS = 0

    2    -152.9877827152      1.29E-02  00000
Finding J and K together
 Job number = 22, Threshold = 1.00E-11
Integral type ranges set in mkLRange.C for JobNum: 22  <1-6|1-6>
 MakeJK  time:  CPU       0.14 s  wall       0.14 s
Fock build time:  0.14 s (CPU) 0.14 s (wall)
DIIS Errors:  Max 1.91E-02 RMS 3.45E-03

Current DIIS subspace size = 3
REM_GRID_RESTART_DIIS = 0

    3    -153.0116767549      3.45E-03  00000
Finding J and K together
 Job number = 22, Threshold = 1.00E-11
Integral type ranges set in mkLRange.C for JobNum: 22  <1-6|1-6>
 MakeJK  time:  CPU       0.15 s  wall       0.15 s
Fock build time:  0.15 s (CPU) 0.15 s (wall)
DIIS Errors:  Max 7.10E-03 RMS 1.20E-03

Current DIIS subspace size = 4
REM_GRID_RESTART_DIIS = 0

    4    -153.0134149068      1.20E-03  00000
Finding J and K together
 Job number = 22, Threshold = 1.00E-11
Integral type ranges set in mkLRange.C for JobNum: 22  <1-6|1-6>
 MakeJK  time:  CPU       0.14 s  wall       0.15 s
Fock build time:  0.15 s (CPU) 0.15 s (wall)
DIIS Errors:  Max 8.25E-04 RMS 8.94E-05

Current DIIS subspace size = 5
REM_GRID_RESTART_DIIS = 0

    5    -153.0135636566      8.94E-05  00000
Finding J and K together
 Job number = 22, Threshold = 1.00E-11
Integral type ranges set in mkLRange.C for JobNum: 22  <1-6|1-6>
 MakeJK  time:  CPU       0.15 s  wall       0.15 s
Fock build time:  0.15 s (CPU) 0.15 s (wall)
DIIS Errors:  Max 1.18E-04 RMS 1.51E-05

Current DIIS subspace size = 6
REM_GRID_RESTART_DIIS = 0

    6    -153.0135661149      1.51E-05  00000
Finding J and K together
 Job number = 22, Threshold = 1.00E-11
Integral type ranges set in mkLRange.C for JobNum: 22  <1-6|1-6>
 MakeJK  time:  CPU       0.14 s  wall       0.13 s
Fock build time:  0.14 s (CPU) 0.13 s (wall)
DIIS Errors:  Max 2.40E-05 RMS 5.16E-06

Current DIIS subspace size = 7
REM_GRID_RESTART_DIIS = 0

    7    -153.0135661731      5.16E-06  00000
Finding J and K together
 Job number = 22, Threshold = 1.00E-11
Integral type ranges set in mkLRange.C for JobNum: 22  <1-6|1-6>
 MakeJK  time:  CPU       0.13 s  wall       0.13 s
Fock build time:  0.13 s (CPU) 0.13 s (wall)
DIIS Errors:  Max 6.07E-06 RMS 9.46E-07

Current DIIS subspace size = 8
REM_GRID_RESTART_DIIS = 0

    8    -153.0135661767      9.46E-07  00000
Finding J and K together
 Job number = 22, Threshold = 1.00E-11
Integral type ranges set in mkLRange.C for JobNum: 22  <1-6|1-6>
 MakeJK  time:  CPU       0.13 s  wall       0.13 s
Fock build time:  0.13 s (CPU) 0.13 s (wall)
DIIS Errors:  Max 2.52E-06 RMS 3.82E-07

Current DIIS subspace size = 9
REM_GRID_RESTART_DIIS = 0

    9    -153.0135661769      3.82E-07  00000
Finding J and K together
 Job number = 22, Threshold = 1.00E-11
Integral type ranges set in mkLRange.C for JobNum: 22  <1-6|1-6>
 MakeJK  time:  CPU       0.13 s  wall       0.13 s
Fock build time:  0.13 s (CPU) 0.13 s (wall)
DIIS Errors:  Max 8.09E-07 RMS 1.22E-07

Current DIIS subspace size = 10
REM_GRID_RESTART_DIIS = 0

   10    -153.0135661770      1.22E-07  00000
Finding J and K together
 Job number = 22, Threshold = 1.00E-11
Integral type ranges set in mkLRange.C for JobNum: 22  <1-6|1-6>
 MakeJK  time:  CPU       0.15 s  wall       0.15 s
Fock build time:  0.15 s (CPU) 0.15 s (wall)
DIIS Errors:  Max 5.50E-08 RMS 1.21E-08

Current DIIS subspace size = 11
REM_GRID_RESTART_DIIS = 0

   11    -153.0135661770      1.21E-08  00000
Finding J and K together
 Job number = 22, Threshold = 1.00E-11
Integral type ranges set in mkLRange.C for JobNum: 22  <1-6|1-6>
 MakeJK  time:  CPU       0.14 s  wall       0.14 s
Fock build time:  0.14 s (CPU) 0.14 s (wall)
DIIS Errors:  Max 1.95E-08 RMS 3.45E-09

Current DIIS subspace size = 12
REM_GRID_RESTART_DIIS = 0

   12    -153.0135661770      3.45E-09  00000 Convergence criterion met
 ---------------------------------------
 SCF time:  CPU 1.63 s  wall 1.67 s
 SCF   energy in the final basis set = -153.01356618
 Total energy in the final basis set = -153.01356618
drvman_main.C: 73: calling DrvMan  Calculating analytic gradient of the SCF energy
drvman.C : 218: Calculating analytic gradient of the SCF energy
drvman.C: 244: calling SCF_Grad for normal SCF gradient
 Job number = 111, Threshold = 1.00E-11
Integral type ranges set in mkLRange.C for JobNum: 11  <1-6|7-7>
Finding J and K together
 ML is being used
 Job number = 122, Threshold = 1.00E-11
Integral type ranges set in mkLRange.C for JobNum: 22  <1-6|1-6>
 MakeJK  time:  CPU       0.41 s  wall       0.41 s
 Gradient of SCF Energy
            1           2           3           4           5           6
    1  -0.0281094  -0.0065638   0.0161196  -0.0009794   0.0517238  -0.0389063
    2  -0.0472230   0.0318113   0.0156245   0.0252324   0.0107684   0.0294562
    3   0.0141656  -0.0117909  -0.0034421  -0.0112489   0.0009399  -0.0085106
            7           8           9          10
    1   0.0094456   0.0064391  -0.0023281  -0.0068412
    2  -0.0088106  -0.0007301  -0.0262717  -0.0298572
    3   0.0022705  -0.0021422   0.0092059   0.0105528
 Max gradient component =       5.172E-02
 RMS gradient           =       2.081E-02
drvman.C: 248: out of SCF_Grad for normal SCF gradient
 Gradient time:  CPU 0.42 s  wall 0.42 s
 ------------------------------------------------------------------------------
                     drvman        : Timing summary (seconds)
 ------------------------------------------------------------------------------
     job step          cpu (% of tot)      sys (% of tot)     wall (% of tot)
 ------------------------------------------------------------------------------
 ------------------------------------------------------------------------------
   Grand Totals     0.4200E+00          0.1000E-05          0.4233E+00
 ------------------------------------------------------------------------------
drvman_main.C: 77: out of DrvMan  Time for this dynamics step: 2.1 s (CPU) 2.1 s (wall)

TIME STEP #4 (t = 60.000 a.u. = 1.45133 fs)
--------------------------------------
 Instantaneous Temperature = 383.9 K
 ----------------------------------------------------------------
             Standard Nuclear Orientation (Angstroms)
    I     Atom           X                Y                Z
 ----------------------------------------------------------------
    1      C       4.5536553388     0.2825126144     0.3310486530
    2      C       3.4684635560     0.8362794485    -0.1247466127
    3      H       5.5067734642     0.8477576086     0.2919228184
    4      H       4.5817781551    -0.6871922248     0.7278338931
    5      C       2.1730088011     0.1289751795    -0.1215139886
    6      C       1.0404458922     0.6908907389    -0.5533907965
    7      H       0.1644579695     0.0642183423    -0.5476550959
    8      H       1.0401480945     1.6687074273    -1.0105525765
    9      H       3.4456348173     1.7968035744    -0.5476516440
   10      H       2.1207835002    -0.9192832182     0.2877398518
 ----------------------------------------------------------------
 Nuclear Repulsion Energy =   104.4985870900 hartrees
 There are       15 alpha and       15 beta electrons

                       Distance Matrix (Angstroms)
             C (  1)   C (  2)   H (  3)   H (  4)   C (  5)   C (  6)
   C (  2)  1.300788
   H (  3)  1.108813  2.080493
   H (  4)  1.048121  2.070587  1.844371
   C (  5)  2.428140  1.475972  3.435341  2.681360
   C (  6)  3.645771  2.469847  4.548323  4.010197  1.336026
   H (  7)  4.481610  3.419266  5.464354  4.658777  2.054280  1.077082
   H (  8)  4.008262  2.715567  4.724526  4.595149  2.108207  1.079408
   H (  9)  2.071932  1.049751  2.419476  3.014618  2.140753  2.647265
   H ( 10)  2.713863  2.251308  3.819343  2.510785  1.126526  2.113597
             H (  7)   H (  8)   H (  9)
   H (  8)  1.885601
   H (  9)  3.710522  2.452968
   H ( 10)  2.343581  3.090474  3.135321

 Applying Cartesian multipole field
    Component          Value
    ---------          -----
     (2,0,0)        1.00000E-12
     (0,2,0)        2.00000E-11
     (0,0,2)       -3.00000E-10
 Nucleus-field energy     =    -0.0000000032 hartrees
 ENuRep (before)= 104.4985870900
 ENucField = -0.0000000032
 ENuRep (after) = 104.4985870869
 Job number = 2, Threshold = 1.00E-11
Integral type ranges set in mkLRange.C for JobNum: 2  <1-6|1-6>
Symmetry turned off temporarily
Symmetry turned back on
 Job number = 11, Threshold = 1.00E-11
Integral type ranges set in mkLRange.C for JobNum: 11  <1-6|7-7>
 Smallest overlap matrix eigenvalue = 1.73E-01
 Multipole matrices computed through 2nd order
 Guess from superposition of atomic densities
 Warning:  Energy on first SCF cycle will be non-variational
 SAD guess density has 30.000000 electrons
 SCF convergence criterion is 10**(-8)
 A restricted Hartree-Fock SCF calculation will be
 performed using Pulay DIIS extrapolation
 SCF converges when DIIS error is below 1.0E-08
Finding J and K together
 Job number = 22, Threshold = 1.00E-11
Integral type ranges set in mkLRange.C for JobNum: 22  <1-6|1-6>
 MakeJK  time:  CPU       0.12 s  wall       0.12 s
Fock build time:  0.12 s (CPU) 0.12 s (wall)
DIIS Errors:  Max 1.17E+00 RMS 2.19E-01

Current DIIS subspace size = 1
REM_GRID_RESTART_DIIS = 0

 ---------------------------------------
  Cycle       Energy         DIIS Error
 ---------------------------------------
    1    -152.7030448693      2.19E-01  00000
Finding J and K together
 Job number = 22, Threshold = 1.00E-11
Integral type ranges set in mkLRange.C for JobNum: 22  <1-6|1-6>
 MakeJK  time:  CPU       0.17 s  wall       0.19 s
Fock build time:  0.17 s (CPU) 0.19 s (wall)
DIIS Errors:  Max 6.02E-02 RMS 1.29E-02

Current DIIS subspace size = 2
REM_GRID_RESTART_DIIS = 0

    2    -152.9859420372      1.29E-02  00000
Finding J and K together
 Job number = 22, Threshold = 1.00E-11
Integral type ranges set in mkLRange.C for JobNum: 22  <1-6|1-6>
 MakeJK  time:  CPU       0.19 s  wall       0.21 s
Fock build time:  0.19 s (CPU) 0.21 s (wall)
DIIS Errors:  Max 1.92E-02 RMS 3.44E-03

Current DIIS subspace size = 3
REM_GRID_RESTART_DIIS = 0

    3    -153.0097757629      3.44E-03  00000
Finding J and K together
 Job number = 22, Threshold = 1.00E-11
Integral type ranges set in mkLRange.C for JobNum: 22  <1-6|1-6>
 MakeJK  time:  CPU       0.18 s  wall       0.19 s
Fock build time:  0.18 s (CPU) 0.19 s (wall)
DIIS Errors:  Max 7.13E-03 RMS 1.17E-03

Current DIIS subspace size = 4
REM_GRID_RESTART_DIIS = 0

    4    -153.0114975688      1.17E-03  00000
Finding J and K together
 Job number = 22, Threshold = 1.00E-11
Integral type ranges set in mkLRange.C for JobNum: 22  <1-6|1-6>
 MakeJK  time:  CPU       0.18 s  wall       0.19 s
Fock build time:  0.18 s (CPU) 0.19 s (wall)
DIIS Errors:  Max 7.81E-04 RMS 8.77E-05

Current DIIS subspace size = 5
REM_GRID_RESTART_DIIS = 0

    5    -153.0116389233      8.77E-05  00000
Finding J and K together
 Job number = 22, Threshold = 1.00E-11
Integral type ranges set in mkLRange.C for JobNum: 22  <1-6|1-6>
 MakeJK  time:  CPU       0.20 s  wall       0.20 s
Fock build time:  0.20 s (CPU) 0.20 s (wall)
DIIS Errors:  Max 1.20E-04 RMS 1.64E-05

Current DIIS subspace size = 6
REM_GRID_RESTART_DIIS = 0

    6    -153.0116411504      1.64E-05  00000
Finding J and K together
 Job number = 22, Threshold = 1.00E-11
Integral type ranges set in mkLRange.C for JobNum: 22  <1-6|1-6>
 MakeJK  time:  CPU       0.17 s  wall       0.17 s
Fock build time:  0.17 s (CPU) 0.18 s (wall)
DIIS Errors:  Max 2.83E-05 RMS 5.55E-06

Current DIIS subspace size = 7
REM_GRID_RESTART_DIIS = 0

    7    -153.0116412140      5.55E-06  00000
Finding J and K together
 Job number = 22, Threshold = 1.00E-11
Integral type ranges set in mkLRange.C for JobNum: 22  <1-6|1-6>
 MakeJK  time:  CPU       0.18 s  wall       0.18 s
Fock build time:  0.18 s (CPU) 0.18 s (wall)
DIIS Errors:  Max 7.33E-06 RMS 1.17E-06

Current DIIS subspace size = 8
REM_GRID_RESTART_DIIS = 0

    8    -153.0116412184      1.17E-06  00000
Finding J and K together
 Job number = 22, Threshold = 1.00E-11
Integral type ranges set in mkLRange.C for JobNum: 22  <1-6|1-6>
 MakeJK  time:  CPU       0.18 s  wall       0.18 s
Fock build time:  0.18 s (CPU) 0.18 s (wall)
DIIS Errors:  Max 3.25E-06 RMS 4.83E-07

Current DIIS subspace size = 9
REM_GRID_RESTART_DIIS = 0

    9    -153.0116412187      4.83E-07  00000
Finding J and K together
 Job number = 22, Threshold = 1.00E-11
Integral type ranges set in mkLRange.C for JobNum: 22  <1-6|1-6>
 MakeJK  time:  CPU       0.18 s  wall       0.18 s
Fock build time:  0.18 s (CPU) 0.18 s (wall)
DIIS Errors:  Max 8.40E-07 RMS 1.29E-07

Current DIIS subspace size = 10
REM_GRID_RESTART_DIIS = 0

   10    -153.0116412188      1.29E-07  00000
Finding J and K together
 Job number = 22, Threshold = 1.00E-11
Integral type ranges set in mkLRange.C for JobNum: 22  <1-6|1-6>
 MakeJK  time:  CPU       0.18 s  wall       0.19 s
Fock build time:  0.18 s (CPU) 0.19 s (wall)
DIIS Errors:  Max 6.60E-08 RMS 1.31E-08

Current DIIS subspace size = 11
REM_GRID_RESTART_DIIS = 0

   11    -153.0116412188      1.31E-08  00000
Finding J and K together
 Job number = 22, Threshold = 1.00E-11
Integral type ranges set in mkLRange.C for JobNum: 22  <1-6|1-6>
 MakeJK  time:  CPU       0.18 s  wall       0.19 s
Fock build time:  0.18 s (CPU) 0.19 s (wall)
DIIS Errors:  Max 2.43E-08 RMS 4.19E-09

Current DIIS subspace size = 12
REM_GRID_RESTART_DIIS = 0

   12    -153.0116412188      4.19E-09  00000 Convergence criterion met
 ---------------------------------------
 SCF time:  CPU 2.16 s  wall 2.24 s
 SCF   energy in the final basis set = -153.01164122
 Total energy in the final basis set = -153.01164122
drvman_main.C: 73: calling DrvMan  Calculating analytic gradient of the SCF energy
drvman.C : 218: Calculating analytic gradient of the SCF energy
drvman.C: 244: calling SCF_Grad for normal SCF gradient
 Job number = 111, Threshold = 1.00E-11
Integral type ranges set in mkLRange.C for JobNum: 11  <1-6|7-7>
Finding J and K together
 ML is being used
 Job number = 122, Threshold = 1.00E-11
Integral type ranges set in mkLRange.C for JobNum: 22  <1-6|1-6>
 MakeJK  time:  CPU       0.44 s  wall       0.44 s
 Gradient of SCF Energy
            1           2           3           4           5           6
    1  -0.0434779   0.0149299   0.0171757  -0.0009810   0.0441107  -0.0400015
    2  -0.0480340   0.0353601   0.0168427   0.0299897   0.0109406   0.0319506
    3   0.0113346  -0.0078578  -0.0038151  -0.0133420  -0.0024415  -0.0061926
            7           8           9          10
    1   0.0117434   0.0079452  -0.0036437  -0.0078009
    2  -0.0104439  -0.0017283  -0.0315912  -0.0332862
    3   0.0024269  -0.0025431   0.0108047   0.0116259
 Max gradient component =       4.803E-02
 RMS gradient           =       2.238E-02
drvman.C: 248: out of SCF_Grad for normal SCF gradient
 Gradient time:  CPU 0.46 s  wall 0.46 s
 ------------------------------------------------------------------------------
                     drvman        : Timing summary (seconds)
 ------------------------------------------------------------------------------
     job step          cpu (% of tot)      sys (% of tot)     wall (% of tot)
 ------------------------------------------------------------------------------
 ------------------------------------------------------------------------------
   Grand Totals     0.4600E+00          0.0000E+00          0.4608E+00
 ------------------------------------------------------------------------------
drvman_main.C: 77: out of DrvMan  Time for this dynamics step: 2.7 s (CPU) 2.7 s (wall)

TIME STEP #5 (t = 80.000 a.u. = 1.93511 fs)
--------------------------------------
 Instantaneous Temperature = 344.0 K
 ----------------------------------------------------------------
             Standard Nuclear Orientation (Angstroms)
    I     Atom           X                Y                Z
 ----------------------------------------------------------------
    1      C       4.5490976558     0.2840257755     0.3313491035
    2      C       3.4749265520     0.8383693278    -0.1223424438
    3      H       5.5022645771     0.8467818851     0.2934713397
    4      H       4.5762344738    -0.6864718403     0.7244349871
    5      C       2.1710891443     0.1264024816    -0.1250125724
    6      C       1.0408211221     0.6918454786    -0.5506214235
    7      H       0.1754399016     0.0503262115    -0.5541128752
    8      H       1.0457843022     1.6648508673    -1.0168471160
    9      H       3.4400950043     1.7955631348    -0.5498482796
   10      H       2.1154607538    -0.9236746672     0.2810184531
 ----------------------------------------------------------------
 Nuclear Repulsion Energy =   104.5865673167 hartrees
 There are       15 alpha and       15 beta electrons

                       Distance Matrix (Angstroms)
             C (  1)   C (  2)   H (  3)   H (  4)   C (  5)   C (  6)
   C (  2)  1.291114
   H (  3)  1.107545  2.069558
   H (  4)  1.047434  2.062778  1.842316
   C (  5)  2.426527  1.485562  3.433774  2.677135
   C (  6)  3.640356  2.475835  4.543234  4.003083  1.333557
   H (  7)  4.468505  3.419656  5.452321  4.641611  2.042677  1.077239
   H (  8)  3.999689  2.717341  4.716608  4.585287  2.104401  1.078949
   H (  9)  2.071507  1.048902  2.421553  3.012492  2.139383  2.640967
   H ( 10)  2.717289  2.261779  3.821663  2.511631  1.127217  2.111014
             H (  7)   H (  8)   H (  9)
   H (  8)  1.891643
   H (  9)  3.701870  2.442928
   H ( 10)  2.325898  3.086928  3.136758

 Applying Cartesian multipole field
    Component          Value
    ---------          -----
     (2,0,0)        1.00000E-12
     (0,2,0)        2.00000E-11
     (0,0,2)       -3.00000E-10
 Nucleus-field energy     =    -0.0000000032 hartrees
 ENuRep (before)= 104.5865673167
 ENucField = -0.0000000032
 ENuRep (after) = 104.5865673135
 Job number = 2, Threshold = 1.00E-11
Integral type ranges set in mkLRange.C for JobNum: 2  <1-6|1-6>
Symmetry turned off temporarily
Symmetry turned back on
 Job number = 11, Threshold = 1.00E-11
Integral type ranges set in mkLRange.C for JobNum: 11  <1-6|7-7>
 Smallest overlap matrix eigenvalue = 1.69E-01
 Multipole matrices computed through 2nd order
 Guess from superposition of atomic densities
 Warning:  Energy on first SCF cycle will be non-variational
 SAD guess density has 30.000000 electrons
 SCF convergence criterion is 10**(-8)
 A restricted Hartree-Fock SCF calculation will be
 performed using Pulay DIIS extrapolation
 SCF converges when DIIS error is below 1.0E-08
Finding J and K together
 Job number = 22, Threshold = 1.00E-11
Integral type ranges set in mkLRange.C for JobNum: 22  <1-6|1-6>
 MakeJK  time:  CPU       0.09 s  wall       0.09 s
Fock build time:  0.09 s (CPU) 0.09 s (wall)
DIIS Errors:  Max 1.19E+00 RMS 2.20E-01

Current DIIS subspace size = 1
REM_GRID_RESTART_DIIS = 0

 ---------------------------------------
  Cycle       Energy         DIIS Error
 ---------------------------------------
    1    -152.7178444147      2.20E-01  00000
Finding J and K together
 Job number = 22, Threshold = 1.00E-11
Integral type ranges set in mkLRange.C for JobNum: 22  <1-6|1-6>
 MakeJK  time:  CPU       0.16 s  wall       0.16 s
Fock build time:  0.16 s (CPU) 0.16 s (wall)
DIIS Errors:  Max 6.00E-02 RMS 1.29E-02

Current DIIS subspace size = 2
REM_GRID_RESTART_DIIS = 0

    2    -152.9845361815      1.29E-02  00000
Finding J and K together
 Job number = 22, Threshold = 1.00E-11
Integral type ranges set in mkLRange.C for JobNum: 22  <1-6|1-6>
 MakeJK  time:  CPU       0.20 s  wall       0.20 s
Fock build time:  0.20 s (CPU) 0.20 s (wall)
DIIS Errors:  Max 1.92E-02 RMS 3.42E-03

Current DIIS subspace size = 3
REM_GRID_RESTART_DIIS = 0

    3    -153.0083131902      3.42E-03  00000
Finding J and K together
 Job number = 22, Threshold = 1.00E-11
Integral type ranges set in mkLRange.C for JobNum: 22  <1-6|1-6>
 MakeJK  time:  CPU       0.20 s  wall       0.20 s
Fock build time:  0.20 s (CPU) 0.20 s (wall)
DIIS Errors:  Max 7.08E-03 RMS 1.14E-03

Current DIIS subspace size = 4
REM_GRID_RESTART_DIIS = 0

    4    -153.0100195497      1.14E-03  00000
Finding J and K together
 Job number = 22, Threshold = 1.00E-11
Integral type ranges set in mkLRange.C for JobNum: 22  <1-6|1-6>
 MakeJK  time:  CPU       0.18 s  wall       0.18 s
Fock build time:  0.18 s (CPU) 0.18 s (wall)
DIIS Errors:  Max 7.36E-04 RMS 8.63E-05

Current DIIS subspace size = 5
REM_GRID_RESTART_DIIS = 0

    5    -153.0101529659      8.63E-05  00000
Finding J and K together
 Job number = 22, Threshold = 1.00E-11
Integral type ranges set in mkLRange.C for JobNum: 22  <1-6|1-6>
 MakeJK  time:  CPU       0.18 s  wall       0.18 s
Fock build time:  0.18 s (CPU) 0.18 s (wall)
DIIS Errors:  Max 1.21E-04 RMS 1.75E-05

Current DIIS subspace size = 6
REM_GRID_RESTART_DIIS = 0

    6    -153.0101549803      1.75E-05  00000
Finding J and K together
 Job number = 22, Threshold = 1.00E-11
Integral type ranges set in mkLRange.C for JobNum: 22  <1-6|1-6>
 MakeJK  time:  CPU       0.18 s  wall       0.18 s
Fock build time:  0.18 s (CPU) 0.18 s (wall)
DIIS Errors:  Max 3.18E-05 RMS 5.80E-06

Current DIIS subspace size = 7
REM_GRID_RESTART_DIIS = 0

    7    -153.0101550492      5.80E-06  00000
Finding J and K together
 Job number = 22, Threshold = 1.00E-11
Integral type ranges set in mkLRange.C for JobNum: 22  <1-6|1-6>
 MakeJK  time:  CPU       0.16 s  wall       0.16 s
Fock build time:  0.16 s (CPU) 0.16 s (wall)
DIIS Errors:  Max 8.47E-06 RMS 1.40E-06

Current DIIS subspace size = 8
REM_GRID_RESTART_DIIS = 0

    8    -153.0101550542      1.40E-06  00000
Finding J and K together
 Job number = 22, Threshold = 1.00E-11
Integral type ranges set in mkLRange.C for JobNum: 22  <1-6|1-6>
 MakeJK  time:  CPU       0.17 s  wall       0.17 s
Fock build time:  0.17 s (CPU) 0.17 s (wall)
DIIS Errors:  Max 3.76E-06 RMS 5.56E-07

Current DIIS subspace size = 9
REM_GRID_RESTART_DIIS = 0

    9    -153.0101550546      5.56E-07  00000
Finding J and K together
 Job number = 22, Threshold = 1.00E-11
Integral type ranges set in mkLRange.C for JobNum: 22  <1-6|1-6>
 MakeJK  time:  CPU       0.18 s  wall       0.18 s
Fock build time:  0.18 s (CPU) 0.18 s (wall)
DIIS Errors:  Max 7.95E-07 RMS 1.25E-07

Current DIIS subspace size = 10
REM_GRID_RESTART_DIIS = 0

   10    -153.0101550546      1.25E-07  00000
Finding J and K together
 Job number = 22, Threshold = 1.00E-11
Integral type ranges set in mkLRange.C for JobNum: 22  <1-6|1-6>
 MakeJK  time:  CPU       0.15 s  wall       0.15 s
Fock build time:  0.15 s (CPU) 0.15 s (wall)
DIIS Errors:  Max 7.56E-08 RMS 1.43E-08

Current DIIS subspace size = 11
REM_GRID_RESTART_DIIS = 0

   11    -153.0101550546      1.43E-08  00000
Finding J and K together
 Job number = 22, Threshold = 1.00E-11
Integral type ranges set in mkLRange.C for JobNum: 22  <1-6|1-6>
 MakeJK  time:  CPU       0.20 s  wall       0.20 s
Fock build time:  0.20 s (CPU) 0.20 s (wall)
DIIS Errors:  Max 2.71E-08 RMS 4.67E-09

Current DIIS subspace size = 12
REM_GRID_RESTART_DIIS = 0

   12    -153.0101550546      4.67E-09  00000 Convergence criterion met
 ---------------------------------------
 SCF time:  CPU 2.06 s  wall 2.07 s
 SCF   energy in the final basis set = -153.01015505
 Total energy in the final basis set = -153.01015505
drvman_main.C: 73: calling DrvMan  Calculating analytic gradient of the SCF energy
drvman.C : 218: Calculating analytic gradient of the SCF energy
drvman.C: 244: calling SCF_Grad for normal SCF gradient
 Job number = 111, Threshold = 1.00E-11
Integral type ranges set in mkLRange.C for JobNum: 11  <1-6|7-7>
Finding J and K together
 ML is being used
 Job number = 122, Threshold = 1.00E-11
Integral type ranges set in mkLRange.C for JobNum: 22  <1-6|1-6>
 MakeJK  time:  CPU       0.50 s  wall       0.50 s
 Gradient of SCF Energy
            1           2           3           4           5           6
    1  -0.0570915   0.0366550   0.0159545  -0.0008668   0.0353481  -0.0390220
    2  -0.0425577   0.0339213   0.0166025   0.0305132   0.0088176   0.0338039
    3   0.0062769  -0.0017233  -0.0040543  -0.0136720  -0.0051074  -0.0032979
            7           8           9          10
    1   0.0132127   0.0091563  -0.0048816  -0.0084646
    2  -0.0122693  -0.0023743  -0.0326982  -0.0337590
    3   0.0024852  -0.0031038   0.0106268   0.0115697
 Max gradient component =       5.709E-02
 RMS gradient           =       2.330E-02
drvman.C: 248: out of SCF_Grad for normal SCF gradient
 Gradient time:  CPU 0.52 s  wall 0.52 s
 ------------------------------------------------------------------------------
                     drvman        : Timing summary (seconds)
 ------------------------------------------------------------------------------
     job step          cpu (% of tot)      sys (% of tot)     wall (% of tot)
 ------------------------------------------------------------------------------
 ------------------------------------------------------------------------------
   Grand Totals     0.5200E+00          0.1000E-05          0.5227E+00
 ------------------------------------------------------------------------------
drvman_main.C: 77: out of DrvMan  Time for this dynamics step: 2.6 s (CPU) 2.6 s (wall)

TIME STEP #6 (t = 100.000 a.u. = 2.41888 fs)
--------------------------------------
 Instantaneous Temperature = 312.9 K
 ----------------------------------------------------------------
             Standard Nuclear Orientation (Angstroms)
    I     Atom           X                Y                Z
 ----------------------------------------------------------------
    1      C       4.5450924209     0.2859507477     0.3315888155
    2      C       3.4810348545     0.8401309664    -0.1199215997
    3      H       5.4959174763     0.8438932854     0.2954869823
    4      H       4.5707906644    -0.6892670751     0.7226113167
    5      C       2.1688274409     0.1237444599    -0.1284617344
    6      C       1.0415739493     0.6924731135    -0.5478201385
    7      H       0.1848995181     0.0378477033    -0.5608569897
    8      H       1.0503655597     1.6612678615    -1.0227840438
    9      H       3.4351176265     1.7980900627    -0.5532692947
   10      H       2.1111132681    -0.9241765252     0.2729640313
 ----------------------------------------------------------------
 Nuclear Repulsion Energy =   104.6662658616 hartrees
 There are       15 alpha and       15 beta electrons

                       Distance Matrix (Angstroms)
             C (  1)   C (  2)   H (  3)   H (  4)   C (  5)   C (  6)
   C (  2)  1.281872
   H (  3)  1.103028  2.057263
   H (  4)  1.051004  2.058273  1.840890
   C (  5)  2.425818  1.495049  3.430434  2.674835
   C (  6)  3.635005  2.481102  4.535997  3.997321  1.330419
   H (  7)  4.457499  3.420905  5.439664  4.627313  2.032317  1.078237
   H (  8)  3.992360  2.719849  4.708383  4.578735  2.101130  1.078995
   H (  9)  2.074026  1.052418  2.424412  3.017378  2.141818  2.636564
   H ( 10)  2.718842  2.268000  3.818832  2.511449  1.123660  2.105031
             H (  7)   H (  8)   H (  9)
   H (  8)  1.896813
   H (  9)  3.696272  2.434380
   H ( 10)  2.308906  3.080369  3.137895

 Applying Cartesian multipole field
    Component          Value
    ---------          -----
     (2,0,0)        1.00000E-12
     (0,2,0)        2.00000E-11
     (0,0,2)       -3.00000E-10
 Nucleus-field energy     =    -0.0000000032 hartrees
 ENuRep (before)= 104.6662658616
 ENucField = -0.0000000032
 ENuRep (after) = 104.6662658584
 Job number = 2, Threshold = 1.00E-11
Integral type ranges set in mkLRange.C for JobNum: 2  <1-6|1-6>
Symmetry turned off temporarily
Symmetry turned back on
 Job number = 11, Threshold = 1.00E-11
Integral type ranges set in mkLRange.C for JobNum: 11  <1-6|7-7>
 Smallest overlap matrix eigenvalue = 1.66E-01
 Multipole matrices computed through 2nd order
 Guess from superposition of atomic densities
 Warning:  Energy on first SCF cycle will be non-variational
 SAD guess density has 30.000000 electrons
 SCF convergence criterion is 10**(-8)
 A restricted Hartree-Fock SCF calculation will be
 performed using Pulay DIIS extrapolation
 SCF converges when DIIS error is below 1.0E-08
Finding J and K together
 Job number = 22, Threshold = 1.00E-11
Integral type ranges set in mkLRange.C for JobNum: 22  <1-6|1-6>
 MakeJK  time:  CPU       0.15 s  wall       0.15 s
Fock build time:  0.15 s (CPU) 0.15 s (wall)
DIIS Errors:  Max 1.21E+00 RMS 2.21E-01

Current DIIS subspace size = 1
REM_GRID_RESTART_DIIS = 0

 ---------------------------------------
  Cycle       Energy         DIIS Error
 ---------------------------------------
    1    -152.7312072211      2.21E-01  00000
Finding J and K together
 Job number = 22, Threshold = 1.00E-11
Integral type ranges set in mkLRange.C for JobNum: 22  <1-6|1-6>
 MakeJK  time:  CPU       0.14 s  wall       0.13 s
Fock build time:  0.14 s (CPU) 0.14 s (wall)
DIIS Errors:  Max 5.98E-02 RMS 1.29E-02

Current DIIS subspace size = 2
REM_GRID_RESTART_DIIS = 0

    2    -152.9836892199      1.29E-02  00000
Finding J and K together
 Job number = 22, Threshold = 1.00E-11
Integral type ranges set in mkLRange.C for JobNum: 22  <1-6|1-6>
 MakeJK  time:  CPU       0.20 s  wall       0.20 s
Fock build time:  0.20 s (CPU) 0.20 s (wall)
DIIS Errors:  Max 1.91E-02 RMS 3.41E-03

Current DIIS subspace size = 3
REM_GRID_RESTART_DIIS = 0

    3    -153.0074121971      3.41E-03  00000
Finding J and K together
 Job number = 22, Threshold = 1.00E-11
Integral type ranges set in mkLRange.C for JobNum: 22  <1-6|1-6>
 MakeJK  time:  CPU       0.19 s  wall       0.20 s
Fock build time:  0.19 s (CPU) 0.20 s (wall)
DIIS Errors:  Max 6.95E-03 RMS 1.10E-03

Current DIIS subspace size = 4
REM_GRID_RESTART_DIIS = 0

    4    -153.0091043185      1.10E-03  00000
Finding J and K together
 Job number = 22, Threshold = 1.00E-11
Integral type ranges set in mkLRange.C for JobNum: 22  <1-6|1-6>
 MakeJK  time:  CPU       0.20 s  wall       0.20 s
Fock build time:  0.20 s (CPU) 0.20 s (wall)
DIIS Errors:  Max 6.91E-04 RMS 8.50E-05

Current DIIS subspace size = 5
REM_GRID_RESTART_DIIS = 0

    5    -153.0092292131      8.50E-05  00000
Finding J and K together
 Job number = 22, Threshold = 1.00E-11
Integral type ranges set in mkLRange.C for JobNum: 22  <1-6|1-6>
 MakeJK  time:  CPU       0.19 s  wall       0.19 s
Fock build time:  0.19 s (CPU) 0.19 s (wall)
DIIS Errors:  Max 1.22E-04 RMS 1.83E-05

Current DIIS subspace size = 6
REM_GRID_RESTART_DIIS = 0

    6    -153.0092310373      1.83E-05  00000
Finding J and K together
 Job number = 22, Threshold = 1.00E-11
Integral type ranges set in mkLRange.C for JobNum: 22  <1-6|1-6>
 MakeJK  time:  CPU       0.14 s  wall       0.14 s
Fock build time:  0.14 s (CPU) 0.14 s (wall)
DIIS Errors:  Max 3.43E-05 RMS 5.96E-06

Current DIIS subspace size = 7
REM_GRID_RESTART_DIIS = 0

    7    -153.0092311103      5.96E-06  00000
Finding J and K together
 Job number = 22, Threshold = 1.00E-11
Integral type ranges set in mkLRange.C for JobNum: 22  <1-6|1-6>
 MakeJK  time:  CPU       0.13 s  wall       0.13 s
Fock build time:  0.13 s (CPU) 0.13 s (wall)
DIIS Errors:  Max 9.37E-06 RMS 1.59E-06

Current DIIS subspace size = 8
REM_GRID_RESTART_DIIS = 0

    8    -153.0092311156      1.59E-06  00000
Finding J and K together
 Job number = 22, Threshold = 1.00E-11
Integral type ranges set in mkLRange.C for JobNum: 22  <1-6|1-6>
 MakeJK  time:  CPU       0.11 s  wall       0.11 s
Fock build time:  0.11 s (CPU) 0.11 s (wall)
DIIS Errors:  Max 4.04E-06 RMS 5.99E-07

Current DIIS subspace size = 9
REM_GRID_RESTART_DIIS = 0

    9    -153.0092311161      5.99E-07  00000
Finding J and K together
 Job number = 22, Threshold = 1.00E-11
Integral type ranges set in mkLRange.C for JobNum: 22  <1-6|1-6>
 MakeJK  time:  CPU       0.18 s  wall       0.18 s
Fock build time:  0.18 s (CPU) 0.18 s (wall)
DIIS Errors:  Max 7.22E-07 RMS 1.18E-07

Current DIIS subspace size = 10
REM_GRID_RESTART_DIIS = 0

   10    -153.0092311162      1.18E-07  00000
Finding J and K together
 Job number = 22, Threshold = 1.00E-11
Integral type ranges set in mkLRange.C for JobNum: 22  <1-6|1-6>
 MakeJK  time:  CPU       0.18 s  wall       0.18 s
Fock build time:  0.18 s (CPU) 0.18 s (wall)
DIIS Errors:  Max 8.28E-08 RMS 1.55E-08

Current DIIS subspace size = 11
REM_GRID_RESTART_DIIS = 0

   11    -153.0092311162      1.55E-08  00000
Finding J and K together
 Job number = 22, Threshold = 1.00E-11
Integral type ranges set in mkLRange.C for JobNum: 22  <1-6|1-6>
 MakeJK  time:  CPU       0.14 s  wall       0.13 s
Fock build time:  0.14 s (CPU) 0.13 s (wall)
DIIS Errors:  Max 2.81E-08 RMS 4.90E-09

Current DIIS subspace size = 12
REM_GRID_RESTART_DIIS = 0

   12    -153.0092311162      4.90E-09  00000 Convergence criterion met
 ---------------------------------------
 SCF time:  CPU 1.94 s  wall 1.98 s
 SCF   energy in the final basis set = -153.00923112
 Total energy in the final basis set = -153.00923112
drvman_main.C: 73: calling DrvMan  Calculating analytic gradient of the SCF energy
drvman.C : 218: Calculating analytic gradient of the SCF energy
drvman.C: 244: calling SCF_Grad for normal SCF gradient
 Job number = 111, Threshold = 1.00E-11
Integral type ranges set in mkLRange.C for JobNum: 11  <1-6|7-7>
Finding J and K together
 ML is being used
 Job number = 122, Threshold = 1.00E-11
Integral type ranges set in mkLRange.C for JobNum: 22  <1-6|1-6>
 MakeJK  time:  CPU       0.42 s  wall       0.42 s
 Gradient of SCF Energy
            1           2           3           4           5           6
    1  -0.0684145   0.0580420   0.0124568  -0.0006626   0.0256638  -0.0361040
    2  -0.0310043   0.0276385   0.0149230   0.0267512   0.0044193   0.0349571
    3  -0.0007616   0.0064553  -0.0041700  -0.0122652  -0.0070038   0.0001836
            7           8           9          10
    1   0.0139129   0.0100623  -0.0061320  -0.0088248
    2  -0.0142349  -0.0026534  -0.0295276  -0.0312689
    3   0.0024094  -0.0038507   0.0085933   0.0104097
 Max gradient component =       6.841E-02
 RMS gradient           =       2.381E-02
drvman.C: 248: out of SCF_Grad for normal SCF gradient
 Gradient time:  CPU 0.44 s  wall 0.44 s
 ------------------------------------------------------------------------------
                     drvman        : Timing summary (seconds)
 ------------------------------------------------------------------------------
     job step          cpu (% of tot)      sys (% of tot)     wall (% of tot)
 ------------------------------------------------------------------------------
 ------------------------------------------------------------------------------
   Grand Totals     0.4400E+00          0.2000E-05          0.4430E+00
 ------------------------------------------------------------------------------
drvman_main.C: 77: out of DrvMan  Time for this dynamics step: 2.4 s (CPU) 2.5 s (wall)

TIME STEP #7 (t = 120.000 a.u. = 2.90266 fs)
--------------------------------------
 Instantaneous Temperature = 293.1 K
 ----------------------------------------------------------------
             Standard Nuclear Orientation (Angstroms)
    I     Atom           X                Y                Z
 ----------------------------------------------------------------
    1      C       4.5417492012     0.2881757343     0.3318358972
    2      C       3.4865815121     0.8416251597    -0.1175632207
    3      H       5.4881351491     0.8392853150     0.2979830814
    4      H       4.5654231929    -0.6951444825     0.7222008023
    5      C       2.1663174008     0.1210436751    -0.1318431241
    6      C       1.0426761378     0.6927624853    -0.5450206298
    7      H       0.1927561417     0.0270092830    -0.5678787068
    8      H       1.0537874739     1.6579905713    -1.0282773127
    9      H       3.4308467513     1.8040190485    -0.5576803980
   10      H       2.1077825408    -0.9210757009     0.2637102388
 ----------------------------------------------------------------
 Nuclear Repulsion Energy =   104.7369879934 hartrees
 There are       15 alpha and       15 beta electrons

                       Distance Matrix (Angstroms)
             C (  1)   C (  2)   H (  3)   H (  4)   C (  5)   C (  6)
   C (  2)  1.273438
   H (  3)  1.095680  2.044236
   H (  4)  1.058236  2.056882  1.840063
[...]
 ML is being used
 Job number = 122, Threshold = 1.00E-11
Integral type ranges set in mkLRange.C for JobNum: 22  <1-6|1-6>
 MakeJK  time:  CPU       0.28 s  wall       0.28 s
 Gradient of SCF Energy
            1           2           3           4           5           6
    1   0.0716507  -0.0680652  -0.0089162  -0.0179349   0.0462524  -0.0248053
    2  -0.0436740  -0.0041164   0.0066007   0.0222728  -0.0082702   0.0172696
    3  -0.0289174  -0.0177005   0.0047949   0.0180860   0.0221952  -0.0217351
            7           8           9          10
    1  -0.0046788  -0.0030035   0.0002347   0.0092662
    2  -0.0054341   0.0063154   0.0139784  -0.0049422
    3   0.0037220   0.0104505   0.0118591  -0.0027546
 Max gradient component =       7.165E-02
 RMS gradient           =       2.510E-02
drvman.C: 248: out of SCF_Grad for normal SCF gradient
 Gradient time:  CPU 0.29 s  wall 0.29 s
 ------------------------------------------------------------------------------
                     drvman        : Timing summary (seconds)
 ------------------------------------------------------------------------------
     job step          cpu (% of tot)      sys (% of tot)     wall (% of tot)
 ------------------------------------------------------------------------------
 ------------------------------------------------------------------------------
   Grand Totals     0.2920E+00          0.2000E-05          0.2902E+00
 ------------------------------------------------------------------------------
drvman_main.C: 77: out of DrvMan  Time for this dynamics step: 1.0 s (CPU) 1.0 s (wall)

TIME STEP #399 (t = 7960.000 a.u. = 192.54319 fs)
--------------------------------------
 Instantaneous Temperature = 336.2 K
 ----------------------------------------------------------------
             Standard Nuclear Orientation (Angstroms)
    I     Atom           X                Y                Z
 ----------------------------------------------------------------
    1      C       4.5175064333     0.4909898933     0.5527822118
    2      C       3.1942252838     0.7444733698     0.4457603158
    3      H       5.0260472892     1.0206494730     1.3651249894
    4      H       5.0397096882    -0.1225707381    -0.1139774224
    5      C       2.3835673384     0.1346627462    -0.6146535837
    6      C       1.1386397933     0.5425819660    -0.8703067355
    7      H       0.4870478999     0.0451827545    -1.5694233378
    8      H       0.6818651859     1.2904557202    -0.2296820713
    9      H       2.7529899568     1.4741454867     1.1446124309
   10      H       2.8913804454    -0.6278704340    -1.1828976568
 ----------------------------------------------------------------
 Nuclear Repulsion Energy =   103.8695995644 hartrees
 There are       15 alpha and       15 beta electrons

                       Distance Matrix (Angstroms)
             C (  1)   C (  2)   H (  3)   H (  4)   C (  5)   C (  6)
   C (  2)  1.351584
   H (  3)  1.095013  2.068109
   H (  4)  1.045811  2.114447  1.869461
   C (  5)  2.458368  1.467485  3.418654  2.715131
   C (  6)  3.666686  2.449127  4.509727  4.028996  1.334766
   H (  7)  4.576800  3.446561  5.492324  4.782593  2.125177  1.077377
   H (  8)  3.995440  2.658246  4.635528  4.582667  2.092809  1.085522
   H (  9)  2.104846  1.102499  2.328320  3.059843  2.241808  2.744783
   H ( 10)  2.628444  2.151179  3.710369  2.452190  1.078069  2.130674
             H (  7)   H (  8)   H (  9)
   H (  8)  1.839447
   H (  9)  3.813452  2.492385
   H ( 10)  2.526503  3.077426  3.139256

 Applying Cartesian multipole field
    Component          Value
    ---------          -----
     (2,0,0)        1.00000E-12
     (0,2,0)        2.00000E-11
     (0,0,2)       -3.00000E-10
 Nucleus-field energy     =    -0.0000000162 hartrees
 ENuRep (before)= 103.8695995644
 ENucField = -0.0000000162
 ENuRep (after) = 103.8695995481
 Job number = 2, Threshold = 1.00E-11
Integral type ranges set in mkLRange.C for JobNum: 2  <1-6|1-6>
Symmetry turned off temporarily
Symmetry turned back on
 Job number = 11, Threshold = 1.00E-11
Integral type ranges set in mkLRange.C for JobNum: 11  <1-6|7-7>
 Smallest overlap matrix eigenvalue = 1.86E-01
 Multipole matrices computed through 2nd order
 Extrapolating the Fock matrix using 12 points and a 6th-order polynomial
 Alpha Fock matrix extrapolation
 Skip SCF guess (diagonalize extrapolated Fock matrix instead)
 SCF convergence criterion is 10**(-8)
 A restricted Hartree-Fock SCF calculation will be
 performed using Pulay DIIS extrapolation
 SCF converges when DIIS error is below 1.0E-08
Extrapolated Fock matrix used in lieu of Fock build
Fock build time:  0.00 s (CPU) 0.00 s (wall)
DIIS Errors:  Max 2.14E-02 RMS 2.72E-03

Current DIIS subspace size = 1
REM_GRID_RESTART_DIIS = 0

 ---------------------------------------
  Cycle       Energy         DIIS Error
 ---------------------------------------
    1    -308.3387330139      2.72E-03  00000
Finding J and K together
 Job number = 22, Threshold = 1.00E-11
Integral type ranges set in mkLRange.C for JobNum: 22  <1-6|1-6>
 MakeJK  time:  CPU       0.10 s  wall       0.10 s
Fock build time:  0.10 s (CPU) 0.10 s (wall)
DIIS Errors:  Max 2.04E-03 RMS 2.08E-04

Current DIIS subspace size = 2
REM_GRID_RESTART_DIIS = 0

    2    -153.0105895947      2.08E-04  00000
Finding J and K together
 Job number = 22, Threshold = 1.00E-11
Integral type ranges set in mkLRange.C for JobNum: 22  <1-6|1-6>
 MakeJK  time:  CPU       0.10 s  wall       0.10 s
Fock build time:  0.10 s (CPU) 0.10 s (wall)
DIIS Errors:  Max 1.39E-04 RMS 1.74E-05

Current DIIS subspace size = 3
REM_GRID_RESTART_DIIS = 0

    3    -153.0105904217      1.74E-05  00000
Finding J and K together
 Job number = 22, Threshold = 1.00E-11
Integral type ranges set in mkLRange.C for JobNum: 22  <1-6|1-6>
 MakeJK  time:  CPU       0.10 s  wall       0.10 s
Fock build time:  0.10 s (CPU) 0.10 s (wall)
DIIS Errors:  Max 1.97E-05 RMS 2.86E-06

Current DIIS subspace size = 4
REM_GRID_RESTART_DIIS = 0

    4    -153.0105904393      2.86E-06  00000
Finding J and K together
 Job number = 22, Threshold = 1.00E-11
Integral type ranges set in mkLRange.C for JobNum: 22  <1-6|1-6>
 MakeJK  time:  CPU       0.10 s  wall       0.10 s
Fock build time:  0.10 s (CPU) 0.10 s (wall)
DIIS Errors:  Max 8.81E-06 RMS 1.11E-06

Current DIIS subspace size = 5
REM_GRID_RESTART_DIIS = 0

    5    -153.0105904402      1.11E-06  00000
Finding J and K together
 Job number = 22, Threshold = 1.00E-11
Integral type ranges set in mkLRange.C for JobNum: 22  <1-6|1-6>
 MakeJK  time:  CPU       0.10 s  wall       0.10 s
Fock build time:  0.10 s (CPU) 0.10 s (wall)
DIIS Errors:  Max 2.50E-06 RMS 2.40E-07

Current DIIS subspace size = 6
REM_GRID_RESTART_DIIS = 0

    6    -153.0105904404      2.40E-07  00000
Finding J and K together
 Job number = 22, Threshold = 1.00E-11
Integral type ranges set in mkLRange.C for JobNum: 22  <1-6|1-6>
 MakeJK  time:  CPU       0.10 s  wall       0.10 s
Fock build time:  0.10 s (CPU) 0.10 s (wall)
DIIS Errors:  Max 7.09E-07 RMS 7.11E-08

Current DIIS subspace size = 7
REM_GRID_RESTART_DIIS = 0

    7    -153.0105904404      7.11E-08  00000
Finding J and K together
 Job number = 22, Threshold = 1.00E-11
Integral type ranges set in mkLRange.C for JobNum: 22  <1-6|1-6>
 MakeJK  time:  CPU       0.10 s  wall       0.10 s
Fock build time:  0.10 s (CPU) 0.10 s (wall)
DIIS Errors:  Max 8.92E-08 RMS 1.58E-08

Current DIIS subspace size = 8
REM_GRID_RESTART_DIIS = 0

    8    -153.0105904404      1.58E-08  00000
Finding J and K together
 Job number = 22, Threshold = 1.00E-11
Integral type ranges set in mkLRange.C for JobNum: 22  <1-6|1-6>
 MakeJK  time:  CPU       0.10 s  wall       0.10 s
Fock build time:  0.10 s (CPU) 0.10 s (wall)
DIIS Errors:  Max 3.96E-08 RMS 6.03E-09

Current DIIS subspace size = 9
REM_GRID_RESTART_DIIS = 0

    9    -153.0105904404      6.03E-09  00000 Convergence criterion met
 ---------------------------------------
 SCF time:  CPU 0.80 s  wall 0.80 s
 SCF   energy in the final basis set = -153.01059044
 Total energy in the final basis set = -153.01059044
drvman_main.C: 73: calling DrvMan  Calculating analytic gradient of the SCF energy
drvman.C : 218: Calculating analytic gradient of the SCF energy
drvman.C: 244: calling SCF_Grad for normal SCF gradient
 Job number = 111, Threshold = 1.00E-11
Integral type ranges set in mkLRange.C for JobNum: 11  <1-6|7-7>
Finding J and K together
 ML is being used
 Job number = 122, Threshold = 1.00E-11
Integral type ranges set in mkLRange.C for JobNum: 22  <1-6|1-6>
 MakeJK  time:  CPU       0.28 s  wall       0.27 s
 Gradient of SCF Energy
            1           2           3           4           5           6
    1   0.0742958  -0.0675309  -0.0075666  -0.0198969   0.0420919  -0.0243875
    2  -0.0518311  -0.0007104   0.0129891   0.0224764  -0.0195681   0.0201898
    3  -0.0385950  -0.0127562   0.0133831   0.0177927   0.0082293  -0.0201877
            7           8           9          10
    1  -0.0005623  -0.0001667   0.0005172   0.0032059
    2  -0.0031183  -0.0001394   0.0144895   0.0052225
    3   0.0084552   0.0060540   0.0122149   0.0054097
 Max gradient component =       7.430E-02
 RMS gradient           =       2.596E-02
drvman.C: 248: out of SCF_Grad for normal SCF gradient
 Gradient time:  CPU 0.29 s  wall 0.28 s
 ------------------------------------------------------------------------------
                     drvman        : Timing summary (seconds)
 ------------------------------------------------------------------------------
     job step          cpu (% of tot)      sys (% of tot)     wall (% of tot)
 ------------------------------------------------------------------------------
 ------------------------------------------------------------------------------
   Grand Totals     0.2880E+00          0.2000E-05          0.2847E+00
 ------------------------------------------------------------------------------
drvman_main.C: 77: out of DrvMan  Time for this dynamics step: 1.1 s (CPU) 1.1 s (wall)

TIME STEP #400 (t = 7980.000 a.u. = 193.02697 fs)
--------------------------------------
 Instantaneous Temperature = 320.6 K
 ----------------------------------------------------------------
             Standard Nuclear Orientation (Angstroms)
    I     Atom           X                Y                Z
 ----------------------------------------------------------------
    1      C       4.5186823611     0.4897157087     0.5524895447
    2      C       3.1947860133     0.7454525674     0.4489537006
    3      H       5.0128597290     1.0309336734     1.3799657385
    4      H       5.0403839045    -0.1235684046    -0.1210051519
    5      C       2.3800851606     0.1352782599    -0.6184221998
    6      C       1.1409403792     0.5421366595    -0.8714421702
    7      H       0.4952773208     0.0417349437    -1.5640454933
    8      H       0.6802264818     1.2730341050    -0.2301090694
    9      H       2.7564709023     1.4739931374     1.1486966285
   10      H       2.8872130917    -0.6146494682    -1.1758924935
 ----------------------------------------------------------------
 Nuclear Repulsion Energy =   103.9331925997 hartrees
 There are       15 alpha and       15 beta electrons

                       Distance Matrix (Angstroms)
             C (  1)   C (  2)   H (  3)   H (  4)   C (  5)   C (  6)
   C (  2)  1.352340
   H (  3)  1.105371  2.062444
   H (  4)  1.049707  2.118085  1.893818
   C (  5)  2.463789  1.474904  3.424508  2.718752
   C (  6)  3.665988  2.450115  4.505499  4.026410  1.328545
   H (  7)  4.568172  3.440164  5.482177  4.771549  2.110795  1.070972
   H (  8)  3.994971  2.657532  4.628462  4.579670  2.082017  1.076000
   H (  9)  2.104674  1.101150  2.311077  3.062777  2.248674  2.749410
   H ( 10)  2.620805  2.141169  3.709276  2.447467  1.063176  2.116675
             H (  7)   H (  8)   H (  9)
   H (  8)  1.824744
   H (  9)  3.810949  2.500456
   H ( 10)  2.510550  3.054283  3.127816

 Applying Cartesian multipole field
    Component          Value
    ---------          -----
     (2,0,0)        1.00000E-12
     (0,2,0)        2.00000E-11
     (0,0,2)       -3.00000E-10
 Nucleus-field energy     =    -0.0000000163 hartrees
 ENuRep (before)= 103.9331925997
 ENucField = -0.0000000163
 ENuRep (after) = 103.9331925833
 Job number = 2, Threshold = 1.00E-11
Integral type ranges set in mkLRange.C for JobNum: 2  <1-6|1-6>
Symmetry turned off temporarily
Symmetry turned back on
 Job number = 11, Threshold = 1.00E-11
Integral type ranges set in mkLRange.C for JobNum: 11  <1-6|7-7>
 Smallest overlap matrix eigenvalue = 1.84E-01
 Multipole matrices computed through 2nd order
 Extrapolating the Fock matrix using 12 points and a 6th-order polynomial
 Alpha Fock matrix extrapolation
 Skip SCF guess (diagonalize extrapolated Fock matrix instead)
 SCF convergence criterion is 10**(-8)
 A restricted Hartree-Fock SCF calculation will be
 performed using Pulay DIIS extrapolation
 SCF converges when DIIS error is below 1.0E-08
Extrapolated Fock matrix used in lieu of Fock build
Fock build time:  0.00 s (CPU) 0.00 s (wall)
DIIS Errors:  Max 2.16E-02 RMS 2.69E-03

Current DIIS subspace size = 1
REM_GRID_RESTART_DIIS = 0

 ---------------------------------------
  Cycle       Energy         DIIS Error
 ---------------------------------------
    1    -308.3827632028      2.69E-03  00000
Finding J and K together
 Job number = 22, Threshold = 1.00E-11
Integral type ranges set in mkLRange.C for JobNum: 22  <1-6|1-6>
 MakeJK  time:  CPU       0.10 s  wall       0.10 s
Fock build time:  0.10 s (CPU) 0.10 s (wall)
DIIS Errors:  Max 6.06E-04 RMS 8.67E-05

Current DIIS subspace size = 2
REM_GRID_RESTART_DIIS = 0

    2    -153.0093651573      8.67E-05  00000
Finding J and K together
 Job number = 22, Threshold = 1.00E-11
Integral type ranges set in mkLRange.C for JobNum: 22  <1-6|1-6>
 MakeJK  time:  CPU       0.10 s  wall       0.10 s
Fock build time:  0.10 s (CPU) 0.10 s (wall)
DIIS Errors:  Max 7.61E-05 RMS 1.36E-05

Current DIIS subspace size = 3
REM_GRID_RESTART_DIIS = 0

    3    -153.0093656111      1.36E-05  00000
Finding J and K together
 Job number = 22, Threshold = 1.00E-11
Integral type ranges set in mkLRange.C for JobNum: 22  <1-6|1-6>
 MakeJK  time:  CPU       0.10 s  wall       0.10 s
Fock build time:  0.10 s (CPU) 0.10 s (wall)
DIIS Errors:  Max 2.39E-05 RMS 3.42E-06

Current DIIS subspace size = 4
REM_GRID_RESTART_DIIS = 0

    4    -153.0093656368      3.42E-06  00000
Finding J and K together
 Job number = 22, Threshold = 1.00E-11
Integral type ranges set in mkLRange.C for JobNum: 22  <1-6|1-6>
 MakeJK  time:  CPU       0.10 s  wall       0.10 s
Fock build time:  0.10 s (CPU) 0.10 s (wall)
DIIS Errors:  Max 8.85E-06 RMS 1.25E-06

Current DIIS subspace size = 5
REM_GRID_RESTART_DIIS = 0

    5    -153.0093656381      1.25E-06  00000
Finding J and K together
 Job number = 22, Threshold = 1.00E-11
Integral type ranges set in mkLRange.C for JobNum: 22  <1-6|1-6>
 MakeJK  time:  CPU       0.10 s  wall       0.10 s
Fock build time:  0.10 s (CPU) 0.10 s (wall)
DIIS Errors:  Max 1.94E-06 RMS 2.10E-07

Current DIIS subspace size = 6
REM_GRID_RESTART_DIIS = 0

    6    -153.0093656383      2.10E-07  00000
Finding J and K together
 Job number = 22, Threshold = 1.00E-11
Integral type ranges set in mkLRange.C for JobNum: 22  <1-6|1-6>
 MakeJK  time:  CPU       0.10 s  wall       0.10 s
Fock build time:  0.10 s (CPU) 0.10 s (wall)
DIIS Errors:  Max 7.22E-07 RMS 7.06E-08

Current DIIS subspace size = 7
REM_GRID_RESTART_DIIS = 0

    7    -153.0093656384      7.06E-08  00000
Finding J and K together
 Job number = 22, Threshold = 1.00E-11
Integral type ranges set in mkLRange.C for JobNum: 22  <1-6|1-6>
 MakeJK  time:  CPU       0.10 s  wall       0.10 s
Fock build time:  0.10 s (CPU) 0.10 s (wall)
DIIS Errors:  Max 1.62E-07 RMS 1.97E-08

Current DIIS subspace size = 8
REM_GRID_RESTART_DIIS = 0

    8    -153.0093656384      1.97E-08  00000
Finding J and K together
 Job number = 22, Threshold = 1.00E-11
Integral type ranges set in mkLRange.C for JobNum: 22  <1-6|1-6>
 MakeJK  time:  CPU       0.10 s  wall       0.10 s
Fock build time:  0.10 s (CPU) 0.10 s (wall)
DIIS Errors:  Max 5.59E-08 RMS 7.53E-09

Current DIIS subspace size = 9
REM_GRID_RESTART_DIIS = 0

    9    -153.0093656384      7.53E-09  00000 Convergence criterion met
 ---------------------------------------
 SCF time:  CPU 0.80 s  wall 0.80 s
 SCF   energy in the final basis set = -153.00936564
 Total energy in the final basis set = -153.00936564
drvman_main.C: 73: calling DrvMan  Calculating analytic gradient of the SCF energy
drvman.C : 218: Calculating analytic gradient of the SCF energy
drvman.C: 244: calling SCF_Grad for normal SCF gradient
 Job number = 111, Threshold = 1.00E-11
Integral type ranges set in mkLRange.C for JobNum: 11  <1-6|7-7>
Finding J and K together
 ML is being used
 Job number = 122, Threshold = 1.00E-11
Integral type ranges set in mkLRange.C for JobNum: 22  <1-6|1-6>
 MakeJK  time:  CPU       0.28 s  wall       0.27 s
 Gradient of SCF Energy
            1           2           3           4           5           6
    1   0.0731079  -0.0653898  -0.0069390  -0.0189822   0.0366774  -0.0227841
    2  -0.0555724   0.0033172   0.0184502   0.0196094  -0.0304982   0.0229205
    3  -0.0437698  -0.0066385   0.0206790   0.0142706  -0.0061436  -0.0176875
            7           8           9          10
    1   0.0032688   0.0029439   0.0012351  -0.0031379
    2  -0.0008648  -0.0068009   0.0139517   0.0154873
    3   0.0128697   0.0012204   0.0115576   0.0136420
 Max gradient component =       7.311E-02
 RMS gradient           =       2.653E-02
drvman.C: 248: out of SCF_Grad for normal SCF gradient
 Gradient time:  CPU 0.28 s  wall 0.28 s
 ------------------------------------------------------------------------------
                     drvman        : Timing summary (seconds)
 ------------------------------------------------------------------------------
     job step          cpu (% of tot)      sys (% of tot)     wall (% of tot)
 ------------------------------------------------------------------------------
 ------------------------------------------------------------------------------
   Grand Totals     0.2840E+00          0.2000E-05          0.2827E+00
 ------------------------------------------------------------------------------
drvman_main.C: 77: out of DrvMan  Time for this dynamics step: 1.1 s (CPU) 1.1 s (wall)

=============== TIME STEPS COMPLETED ==================

Step-to-Step energy fluctuations, |E(n) - E(n-1)|
Mean: 1.283e-07   Max: 5.101e-05   RMS: 1.952e-05
Overall energy fluctuations, |E(n) - E(0)|
Mean: 8.488e-05   Max: 1.724e-04   RMS: 3.234e-05   RMS(dE)/RMS(dV): 1.137e-02
Kinetic energy fluctuations, |T(n) - V(0)|
Mean: -8.019e-03   Max: 1.541e-02   RMS: 2.821e-03
Potential energy fluctuations, |V(n) - V(0)|
Mean: 8.104e-03   Max: 1.559e-02   RMS: 2.845e-03


 JobOver = TRUE
Archival summary:
1\1\qciep03\JobtypUnspecified\HF\STO-3G\46\jcartus\MonJun1812:58:582018MonJun1812:58:582018\0\\#,JobtypUnspecified,HF,STO-3G,\\0,1\C\H,1,1.06318\C,1,1.32855,2,124.128\H,3,1.07097,1,122.846,2,9.7481,0\H,3,1.076,1,119.595,2,177.019,0\C,1,1.4749,2,114.067,3,-177.543,0\H,6,1.10115,1,120.912,2,-174.886,0\C,6,1.35234,1,121.193,2,9.01451,0\H,8,1.04971,6,123.224,1,1.71518,0\H,8,1.10537,6,113.728,1,178.526,0\\HF=-153.009366\\@

 Total job time:  613.13s(wall), 603.49s(cpu) 
 Mon Jun 18 12:58:58 2018

        *************************************************************
        *                                                           *
        *  Thank you very much for using Q-Chem.  Have a nice day.  *
        *                                                           *
        *************************************************************


*** MISSION COMPLETED -- STARFLEET OUT ***

0 sent ACK to 0 
now end server 0 ... 
