Process 0 of 1 is on qciep03 - thread support 0
initial socket setup ...start
initial socket setup ...done 
now start server 0 ... 
qciep03.tugraz.at 127.0.1
Q-Chem Developer Version! Running on 127.0.1.*
                  Welcome to Q-Chem
     A Quantum Leap Into The Future Of Chemistry


 Q-Chem 5.0, Q-Chem, Inc., Pleasanton, CA (2017)

 Yihan Shao,  Zhengting Gan,  E. Epifanovsky,  A. T. B. Gilbert,  M. Wormit,  
 J. Kussmann,  A. W. Lange,  A. Behn,  Jia Deng,  Xintian Feng,  D. Ghosh,  
 M. Goldey,  P. R. Horn,  L. D. Jacobson,  I. Kaliman,  T. Kus,  A. Landau,  
 Jie Liu,  E. I. Proynov,  R. M. Richard,  R. P. Steele,  E. J. Sundstrom,  
 H. L. Woodcock III,  P. M. Zimmerman,  D. Zuev,  B. Albrecht,  E. Alguire,  
 S. A. Baeppler,  D. Barton,  Z. Benda,  Y. A. Bernard,  E. J. Berquist,  
 K. B. Bravaya,  H. Burton,  D. Casanova,  Chun-Min Chang,  Yunqing Chen,  
 A. Chien,  K. D. Closser,  M. P. Coons,  S. Dasgupta,  A. L. Dempwolff,  
 M. Diedenhofen,  Hainam Do,  R. G. Edgar,  Po-Tung Fang,  S. Fatehi,  
 Qingguo Feng,  J. Fosso-Tande,  Qinghui Ge,  A. Ghysels,  G. Gidofalvi,  
 J. Gomes,  J. Gonthier,  A. Gunina,  M. W. D. Hanson-Heine,  
 P. H. P. Harbach,  A. W. Hauser,  J. E. Herr,  E. G. Hohenstein,  
 Z. C. Holden,  Kerwin Hui,  T.-C. Jagau,  Hyunjun Ji,  B. Kaduk,  
 K. Khistyaev,  Jaehoon Kim,  P. Klunzinger,  K. Koh,  D. Kosenkov,  
 L. Koulias,  T. Kowalczyk,  C. M. Krauter,  A. Kunitsa,  Ka Un Lao,  
 A. Laurent,  K. V. Lawler,  Joonho Lee,  D. Lefrancois,  S. Lehtola,  
 D. S. Levine,  Yi-Pei Li,  You-Sheng Lin,  Fenglai Liu,  E. Livshits,  
 A. Luenser,  P. Manohar,  E. Mansoor,  S. F. Manzer,  Shan-Ping Mao,  
 Yuezhi Mao,  N. Mardirossian,  A. V. Marenich,  T. Markovich,  
 L. A. Martinez-Martinez,  S. A. Maurer,  N. J. Mayhall,  S. C. McKenzie,  
 J.-M. Mewes,  A. F. Morrison,  J. W. Mullinax,  K. Nanda,  
 T. S. Nguyen-Beck,  R. Olivares-Amaya,  J. A. Parkhill,  T. M. Perrine,  
 F. Plasser,  S. Prager,  A. Prociuk,  E. Ramos,  D. R. Rehn,  F. Rob,  
 M. Schneider,  N. Sergueev,  S. M. Sharada,  S. Sharma,  D. W. Small,  
 T. Stauch,  T. Stein,  Yu-Chuan Su,  A. J. W. Thom,  A. Tkatchenko,  
 T. Tsuchimochi,  L. Vogt,  O. Vydrov,  M. A. Watson,  J. Wenzel,  
 M. de Wergifosse,  T. A. Wesolowski,  A. White,  J. Witte,  A. Yamada,  
 Jun Yang,  K. Yao,  S. Yeganeh,  S. R. Yost,  Zhi-Qiang You,  A. Zech,  
 Igor Ying Zhang,  Xing Zhang,  Yan Zhao,  Ying Zhu,  B. R. Brooks,  
 G. K. L. Chan,  C. J. Cramer,  M. S. Gordon,  W. J. Hehre,  A. Klamt,  
 M. W. Schmidt,  C. D. Sherrill,  D. G. Truhlar,  A. Aspuru-Guzik,  R. Baer,  
 A. T. Bell,  N. A. Besley,  Jeng-Da Chai,  R. A. DiStasio Jr.,  A. Dreuw,  
 B. D. Dunietz,  T. R. Furlani,  Chao-Ping Hsu,  Yousung Jung,  Jing Kong,  
 D. S. Lambrecht,  WanZhen Liang,  C. Ochsenfeld,  V. A. Rassolov,  
 L. V. Slipchenko,  J. E. Subotnik,  T. Van Voorhis,  J. M. Herbert,  
 A. I. Krylov,  P. M. W. Gill,  M. Head-Gordon

 Contributors to earlier versions of Q-Chem not listed above: 
 R. D. Adamson,  B. Austin,  J. Baker,  G. J. O. Beran,  K. Brandhorst,  
 S. T. Brown,  E. F. C. Byrd,  A. K. Chakraborty,  C.-L. Cheng,  
 Siu Hung Chien,  D. M. Chipman,  D. L. Crittenden,  H. Dachsel,  
 R. J. Doerksen,  A. D. Dutoi,  L. Fusti-Molnar,  W. A. Goddard III,  
 A. Golubeva-Zadorozhnaya,  S. R. Gwaltney,  G. Hawkins,  A. Heyden,  
 S. Hirata,  G. Kedziora,  F. J. Keil,  C. Kelley,  Jihan Kim,  R. A. King,  
 R. Z. Khaliullin,  P. P. Korambath,  W. Kurlancheek,  A. M. Lee,  M. S. Lee,  
 S. V. Levchenko,  Ching Yeh Lin,  D. Liotard,  R. C. Lochan,  I. Lotan,  
 P. E. Maslen,  N. Nair,  D. P. O'Neill,  D. Neuhauser,  E. Neuscamman,  
 C. M. Oana,  R. Olson,  B. Peters,  R. Peverati,  P. A. Pieniazek,  
 Y. M. Rhee,  J. Ritchie,  M. A. Rohrdanz,  E. Rosta,  N. J. Russ,  
 H. F. Schaefer III,  N. E. Schultz,  N. Shenvi,  A. C. Simmonett,  A. Sodt,  
 D. Stuck,  K. S. Thanthiriwatte,  V. Vanovschi,  Tao Wang,  A. Warshel,  
 C. F. Williams,  Q. Wu,  X. Xu,  W. Zhang

 Please cite Q-Chem as follows:
 Y. Shao et al., Mol. Phys. 113, 184-215 (2015)
 DOI: 10.1080/00268976.2014.952696

 Q-Chem 5.0.2 for Intel X86 EM64T Linux

 Parts of Q-Chem use Armadillo 5.200.1 (Boston Tea Smuggler).
 http://arma.sourceforge.net/

 Q-Chem begins on Mon Jun 18 12:40:49 2018  


Host: 0

     Scratch files written to /home/jcartus/scratch/Butadien_22.mol.dir//
 Using version located at /usr/local/qchem/bin/qchem

 Parallel job on  1  processors
Symmetry disabled for AIMD jobs.

Total Memory Limit in MB = 2000
Mega-Array Size in MB = 192

Checking the input file for inconsistencies... 	...done.
Finally everything over in PARseQInput

--------------------------------------------------------------
User input:
--------------------------------------------------------------
$rem
AIMD_STEPS                    400
FOCK_EXTRAP_POINTS            12
MAX_SCF_CYCLES                100
BASIS                         sto-3g
AIMD_INIT_VELOC               thermal
FOCK_EXTRAP_ORDER             6
AIMD_TEMP                     400
AIMD_METHOD                   bomd
TIME_STEP                     20
METHOD                        hf
JOBTYPE                       aimd
$end

$molecule
0 1
C    4.12067    1.32317    0.48466
C    3.04511    0.97297    -0.22961
H    4.05114    1.95971    1.36092
H    5.10763    0.97084    0.20176
C    1.71069    1.40931    0.09822
C    0.63168    1.04063    -0.60177
H    0.69775    0.38433    -1.46359
H    -0.35500    1.39333    -0.31834
H    3.17273    0.33039    -1.09830
H    1.58565    2.06779    0.95533
$end


--------------------------------------------------------------
 ----------------------------------------------------------------
             Standard Nuclear Orientation (Angstroms)
    I     Atom           X                Y                Z
 ----------------------------------------------------------------
    1      C       4.1206700000     1.3231700000     0.4846600000
    2      C       3.0451100000     0.9729700000    -0.2296100000
    3      H       4.0511400000     1.9597100000     1.3609200000
    4      H       5.1076300000     0.9708400000     0.2017600000
    5      C       1.7106900000     1.4093100000     0.0982200000
    6      C       0.6316800000     1.0406300000    -0.6017700000
    7      H       0.6977500000     0.3843300000    -1.4635900000
    8      H      -0.3550000000     1.3933300000    -0.3183400000
    9      H       3.1727300000     0.3303900000    -1.0983000000
   10      H       1.5856500000     2.0677900000     0.9553300000
 ----------------------------------------------------------------
 Nuclear Repulsion Energy =   104.1573850324 hartrees
 There are       15 alpha and       15 beta electrons
 Requested basis set is STO-3G
 There are 14 shells and 26 basis functions

 Total QAlloc Memory Limit   2000 MB
 Mega-Array Size       188 MB
 MEM_STATIC part       192 MB

finished with qalloc call

                       Distance Matrix (Angstroms)
             C (  1)   C (  2)   H (  3)   H (  4)   C (  5)   C (  6)
   C (  2)  1.337778
   H (  3)  1.085288  2.124979
   H (  4)  1.085476  2.107148  1.854100
   C (  5)  2.442286  1.441715  2.715706  3.426686
   C (  6)  3.665134  2.442893  4.048403  4.548039  1.337974
   H (  7)  4.048886  2.716487  4.658852  4.750203  2.125060  1.085278
   H (  8)  4.547676  3.427145  4.749186  5.503574  2.107333  1.085480
   H (  9)  2.095224  1.088034  3.077995  2.417472  2.175612  2.684757
   H ( 10)  2.683713  2.175485  2.500965  3.765038  1.088057  2.095156
             H (  7)   H (  8)   H (  9)
   H (  8)  1.854174
   H (  9)  2.502373  3.766040
   H ( 10)  3.077918  2.417282  3.123264

 Job number = 2, Threshold = 1.00E-11
Integral type ranges set in mkLRange.C for JobNum: 2  <1-6|1-6>
Symmetry turned off temporarily
 Using the largest function pair in Schwarz integrals
Total number of integrals generated =            3252
Symmetry turned back on
 A cutoff of  1.0D-11 yielded    102 shell pairs
 There are       372 function pairs
 Job number = 11, Threshold = 1.00E-11
Integral type ranges set in mkLRange.C for JobNum: 11  <1-6|7-7>
Total number of integrals generated =            3720
 Smallest overlap matrix eigenvalue = 1.84E-01
 Multipole matrices computed through 2nd order

 Scale SEOQF with 1.000000e-01/1.000000e-01/1.000000e+00

 Standard Electronic Orientation quadrupole field applied
 Nucleus-field energy     =     0.0000000007 hartrees
 ENuRep (before)= 104.1573850324
 ENucField = 0.0000000007
 ENuRep (after) = 104.1573850331
 Guess from superposition of atomic densities
 Warning:  Energy on first SCF cycle will be non-variational
 SAD guess density has 30.000000 electrons

 ==================================================
    GEN_SCFMAN: A general SCF calculation manager  
                                                   
    Authors:                                       
        -- Eric Jon Sundstrom 2008-2014            
        -- Paul Horn 2010-2015                     
        -- Yuezhi Mao 2012-                        
        -- Dmitri Zuev 2014                        
        -- Alec White 2015-                        
        -- David Stuck 2015                        
        -- Shaama M.S. 2015                        
        -- Shane Yost 2015-                         
        -- Joonho Lee 2016-                        
        -- David Small 2016-                       
        -- Daniel Levine 2016-                     
        -- Susi Lehtola 2017-                      
        -- Hugh Burton 2017-                       
 ==================================================
 Hartree-Fock
Finding J and K together
 Job number = 22, Threshold = 1.00E-11
Integral type ranges set in mkLRange.C for JobNum: 22  <1-6|1-6>
 MakeJK  time:  CPU       0.14 s  wall       0.14 s
 A restricted SCF calculation will be
 performed using DIIS
 SCF converges when DIIS error is below 1.0e-08
 ---------------------------------------
  Cycle       Energy         DIIS error
 ---------------------------------------
Finding J and K together
 Job number = 22, Threshold = 1.00E-11
Integral type ranges set in mkLRange.C for JobNum: 22  <1-6|1-6>
 MakeJK  time:  CPU       0.12 s  wall       0.12 s
    1    -152.6466458496      2.15e-01  
Finding J and K together
 Job number = 22, Threshold = 1.00E-11
Integral type ranges set in mkLRange.C for JobNum: 22  <1-6|1-6>
 MakeJK  time:  CPU       0.16 s  wall       0.16 s
    2    -152.9904215408      1.29e-02  
Finding J and K together
 Job number = 22, Threshold = 1.00E-11
Integral type ranges set in mkLRange.C for JobNum: 22  <1-6|1-6>
 MakeJK  time:  CPU       0.15 s  wall       0.15 s
    3    -153.0145516928      3.50e-03  
Finding J and K together
 Job number = 22, Threshold = 1.00E-11
Integral type ranges set in mkLRange.C for JobNum: 22  <1-6|1-6>
 MakeJK  time:  CPU       0.16 s  wall       0.16 s
    4    -153.0163413499      1.28e-03  
Finding J and K together
 Job number = 22, Threshold = 1.00E-11
Integral type ranges set in mkLRange.C for JobNum: 22  <1-6|1-6>
 MakeJK  time:  CPU       0.16 s  wall       0.16 s
    5    -153.0165124899      9.61e-05  
Finding J and K together
 Job number = 22, Threshold = 1.00E-11
Integral type ranges set in mkLRange.C for JobNum: 22  <1-6|1-6>
 MakeJK  time:  CPU       0.18 s  wall       0.19 s
    6    -153.0165156851      1.29e-05  
Finding J and K together
 Job number = 22, Threshold = 1.00E-11
Integral type ranges set in mkLRange.C for JobNum: 22  <1-6|1-6>
 MakeJK  time:  CPU       0.20 s  wall       0.20 s
    7    -153.0165157451      1.48e-06  
Finding J and K together
 Job number = 22, Threshold = 1.00E-11
Integral type ranges set in mkLRange.C for JobNum: 22  <1-6|1-6>
 MakeJK  time:  CPU       0.18 s  wall       0.19 s
    8    -153.0165157456      1.07e-07  
Finding J and K together
 Job number = 22, Threshold = 1.00E-11
Integral type ranges set in mkLRange.C for JobNum: 22  <1-6|1-6>
 MakeJK  time:  CPU       0.19 s  wall       0.19 s
    9    -153.0165157456      3.34e-08  
Finding J and K together
 Job number = 22, Threshold = 1.00E-11
Integral type ranges set in mkLRange.C for JobNum: 22  <1-6|1-6>
 MakeJK  time:  CPU       0.20 s  wall       0.20 s
   10    -153.0165157456      1.44e-08  
   11    -153.0165157456      3.62e-09  Convergence criterion met
 ---------------------------------------
 SCF time:   CPU 1.85s  wall 1.00s 
 Total energy in the final basis set =     -153.0165157456
Wall  1 = 1
Clock 1 = 1.8483710289
 ==================================================
                  Done GEN_SCFMAN                  
 ==================================================

Symmetry turned off temporarily

 --------------------------------------------------------------

                    Orbital Energies (a.u.)
 --------------------------------------------------------------

 Alpha MOs
 -- Occupied --
-11.031 -11.030 -11.016 -11.016  -1.036  -0.942  -0.772  -0.708
 -0.591  -0.591  -0.498  -0.491  -0.443  -0.399  -0.261
 -- Virtual --
  0.243   0.421   0.593   0.674   0.684   0.697   0.699   0.880
  0.910   1.025   1.078
 --------------------------------------------------------------

          Ground-State Mulliken Net Atomic Charges

     Atom                 Charge (a.u.)
  ----------------------------------------
      1 C                    -0.124580
      2 C                    -0.059612
      3 H                     0.060787
      4 H                     0.060919
      5 C                    -0.059564
      6 C                    -0.124610
      7 H                     0.060761
      8 H                     0.060922
      9 H                     0.062513
     10 H                     0.062466
  ----------------------------------------
  Sum of atomic charges =     0.000000

 -----------------------------------------------------------------
                    Cartesian Multipole Moments
 -----------------------------------------------------------------
    Charge (ESU x 10^10)
                -0.0000
    Dipole Moment (Debye)
         X       0.0002      Y      -0.0015      Z       0.0012
       Tot       0.0020
    Quadrupole Moments (Debye-Ang)
        XX     -22.7215     XY      -0.2935     YY     -24.0494
        XZ       0.0948     YZ       1.4560     ZZ     -23.1494
    Octopole Moments (Debye-Ang^2)
       XXX    -162.0388    XXY     -28.3674    XYY     -57.8897
       YYY     -85.5685    XXZ       1.8569    XYZ       3.5704
       YYZ       4.9286    XZZ     -54.9929    YZZ     -27.6425
       ZZZ       4.3159
    Hexadecapole Moments (Debye-Ang^3)
      XXXX   -1073.6554   XXXY    -205.1071   XXYY    -231.9092
      XYYY    -207.8404   YYYY    -239.6391   XXXZ     -23.7064
      XXYZ       8.5493   XYYZ       0.3487   YYYZ       0.5442
      XXZZ    -195.5094   XYZZ     -65.3787   YYZZ     -48.4125
      XZZZ     -23.6537   YZZZ      -3.6911   ZZZZ     -64.3785
 -----------------------------------------------------------------
drvman_main.C: 73: calling DrvMan  Calculating analytic gradient of the SCF energy
drvman.C : 218: Calculating analytic gradient of the SCF energy
drvman.C: 244: calling SCF_Grad for normal SCF gradient
 Job number = 111, Threshold = 1.00E-11
Integral type ranges set in mkLRange.C for JobNum: 11  <1-6|7-7>
Finding J and K together
 ML is being used
 Job number = 122, Threshold = 1.00E-11
Integral type ranges set in mkLRange.C for JobNum: 22  <1-6|1-6>
Total number of integrals generated =           70491
 MakeJK  time:  CPU       0.44 s  wall       0.44 s
 Gradient of SCF Energy
            1           2           3           4           5           6
    1   0.0215942  -0.0651646  -0.0007678   0.0020297   0.0655543  -0.0219636
    2   0.0119946  -0.0015812   0.0021086  -0.0029410   0.0019333  -0.0122887
    3   0.0210020  -0.0156142   0.0030786  -0.0036639   0.0154317  -0.0208966
            7           8           9          10
    1   0.0007369  -0.0020307   0.0030038  -0.0029921
    2  -0.0024339   0.0029953  -0.0024117   0.0026249
    3  -0.0028226   0.0036255  -0.0029071   0.0027665
 Max gradient component =       6.555E-02
 RMS gradient           =       1.939E-02
drvman.C: 248: out of SCF_Grad for normal SCF gradient
 Gradient time:  CPU 0.46 s  wall 0.46 s
 ------------------------------------------------------------------------------
                     drvman        : Timing summary (seconds)
 ------------------------------------------------------------------------------
     job step          cpu (% of tot)      sys (% of tot)     wall (% of tot)
 ------------------------------------------------------------------------------
 ------------------------------------------------------------------------------
   Grand Totals     0.4560E+00          0.2000E-05          0.4588E+00
 ------------------------------------------------------------------------------
drvman_main.C: 77: out of DrvMan =======================================================
            AB INITIO MOLECULAR DYNAMICS
=======================================================
Created directory /home/jcartus/scratch/Butadien_22.mol.dir/AIMD
AIMD will take 400 BOMD steps Velocity Verlet integration
Time step = 20.00000 a.u. ( = 0.48378 fs)
Total simulation time requested = 193.511 fs
Integral threshold = 10**(-11)
SCF convergence threshold = 10**(-8)
Generating viewable xyz trajectory,
 file (in Angstroms) at AIMD/View.xyz
Choosing nuclear velocities from Maxwell-Boltzmann
Velocities sampled from Maxwell-Boltzmann at T = 400.0 K
sqrt(kT/m) and (vx,vy,vz) for each atom:
  1   2.4064e-04   5.66e-04   5.57e-05  -9.87e-05 
  2   2.4064e-04  -1.67e-04   2.68e-04  -6.14e-05 
  3   8.3036e-04   6.67e-04  -2.37e-04   5.23e-05 
  4   8.3036e-04  -1.70e-05  -2.74e-04   1.62e-03 
  5   2.4064e-04   9.37e-05   5.51e-05  -5.22e-04 
  6   2.4064e-04   8.39e-06  -9.55e-05   4.73e-04 
  7   8.3036e-04   1.39e-04  -2.16e-04  -1.56e-03 
  8   8.3036e-04  -1.39e-03   1.97e-03   4.19e-04 
  9   8.3036e-04  -2.26e-03   1.33e-03  -2.92e-04 
 10   8.3036e-04   9.70e-04  -4.95e-04  -1.03e-03 
T(nuclear) = 0.02967144 a.u.
v(c.o.m.) = (  7.5922e-05,   1.0182e-04,  -6.1074e-05)
T(c.o.m.) = 9.78392e-04 a.u.
kT/2 = 0.000633 a.u.
Tx   = 0.011669 a.u.
Ty   = 0.006555 a.u.
Tz   = 0.011448 a.u.
Mean velocities (a.u.):  -1.3918e-04   2.3690e-04  -1.0014e-04
Removing c.o.m. velocity
T(nuclear) = 0.03105790 a.u.
v(c.o.m.) = (  0.0000e+00,  -2.4791e-20,   9.0151e-21)
T(c.o.m.) = 3.42799e-35 a.u.
kT   = 0.001267 a.u. = 0.79 kcal/mol
Tx   = 0.013675 a.u. = 8.58 kcal/mol
Ty   = 0.005914 a.u. = 3.71 kcal/mol
Tz   = 0.011470 a.u. = 7.20 kcal/mol
Initial velocities in m/s
  1      1.1632e+03      2.1487e+01     -1.5570e+02 
  2     -4.4046e+02      4.8646e+02     -7.4132e+01 
  3      5.6810e+02     -1.7137e+03      8.3091e+02 
  4     -9.2796e+02     -1.7940e+03      4.2641e+03 
  5      1.3028e+02      2.0136e+01     -1.0808e+03 
  6     -5.6460e+01     -3.0932e+02      1.0953e+03 
  7     -5.8620e+02     -1.6662e+03     -2.6996e+03 
  8     -3.9327e+03      3.1253e+03      1.6332e+03 
  9     -5.8374e+03      1.7206e+03      7.8374e+01 
 10      1.2313e+03     -2.2768e+03     -1.5425e+03 
----------------------------------------------------------------------------
       Nuclear coordinates (Angst) and velocities (a.u.)
----------------------------------------------------------------------------
             x        y        z            v_x         v_y        v_z
----------------------------------------------------------------------------
1      C    4.1207   1.3232   0.4847     5.3172e-04   9.8216e-06  -7.1172e-05
2      C    3.0451   0.9730  -0.2296    -2.0134e-04   2.2236e-04  -3.3886e-05
3      H    4.0511   1.9597   1.3609     2.5968e-04  -7.8333e-04   3.7981e-04
4      H    5.1076   0.9708   0.2018    -4.2417e-04  -8.2003e-04   1.9491e-03
5      C    1.7107   1.4093   0.0982     5.9552e-05   9.2042e-06  -4.9404e-04
6      C    0.6317   1.0406  -0.6018    -2.5808e-05  -1.4139e-04   5.0065e-04
7      H    0.6977   0.3843  -1.4636    -2.6795e-04  -7.6164e-04  -1.2340e-03
8      H   -0.3550   1.3933  -0.3183    -1.7977e-03   1.4286e-03   7.4656e-04
9      H    3.1727   0.3304  -1.0983    -2.6683e-03   7.8650e-04   3.5825e-05
10     H    1.5857   2.0678   0.9553     5.6281e-04  -1.0407e-03  -7.0509e-04
----------------------------------------------------------------------------
Write nuclear velocities every 1 time steps

TIME STEP #1 (t = 0.000 a.u. = 0.00000 fs)
--------------------------------------
 Instantaneous Temperature = 653.8 K
 ----------------------------------------------------------------
             Standard Nuclear Orientation (Angstroms)
    I     Atom           X                Y                Z
 ----------------------------------------------------------------
    1      C       4.1261930359     1.3232159142     0.4838051348
    2      C       3.0432944243     0.9753310179    -0.2298930866
    3      H       4.0539325755     1.9512980927     1.3647623814
    4      H       5.1030238085     0.9623305635     0.2225997528
    5      C       1.7110031035     1.4093980595     0.0929166533
    6      C       0.6315131249     1.0391930391    -0.5963702718
    7      H       0.6948716427     0.3764093300    -1.4764876053
    8      H      -0.3739087232     1.4082771145    -0.3106476562
    9      H       3.1443167877     0.3388529250    -1.0977533687
   10      H       1.5917789241     2.0566242464     0.9477082348
 ----------------------------------------------------------------
 Nuclear Repulsion Energy =   104.1494279055 hartrees
 There are       15 alpha and       15 beta electrons

                       Distance Matrix (Angstroms)
             C (  1)   C (  2)   H (  3)   H (  4)   C (  5)   C (  6)
   C (  2)  1.342780
   H (  3)  1.084341  2.125283
   H (  4)  1.073622  2.108887  1.839344
   C (  5)  2.448135  1.437922  2.720398  3.423812
   C (  6)  3.668819  2.440302  4.048572  4.546540  1.333217
   H (  7)  4.063638  2.725398  4.672929  4.760463  2.136029  1.103586
   H (  8)  4.570482  3.445467  4.765254  5.520871  2.123611  1.108483
   H (  9)  2.105796  1.080968  3.080806  2.443070  2.148988  2.656321
   H ( 10)  2.678871  2.159360  2.499446  3.748613  1.078789  2.083616
             H (  7)   H (  8)   H (  9)
   H (  8)  1.888445
   H (  9)  2.478837  3.760467
   H ( 10)  3.082903  2.422342  3.089502

 Applying Cartesian multipole field
    Component          Value
    ---------          -----
     (2,0,0)        1.00000E-11
     (0,2,0)        2.00000E-11
     (0,0,2)       -3.00000E-10
 Nucleus-field energy     =     0.0000000007 hartrees
 ENuRep (before)= 104.1494279055
 ENucField = 0.0000000007
 ENuRep (after) = 104.1494279062
 Job number = 2, Threshold = 1.00E-11
Integral type ranges set in mkLRange.C for JobNum: 2  <1-6|1-6>
Symmetry turned off temporarily
Symmetry turned back on
 Job number = 11, Threshold = 1.00E-11
Integral type ranges set in mkLRange.C for JobNum: 11  <1-6|7-7>
 Smallest overlap matrix eigenvalue = 1.83E-01
 Multipole matrices computed through 2nd order
 Guess from superposition of atomic densities
 Warning:  Energy on first SCF cycle will be non-variational
 SAD guess density has 30.000000 electrons
 SCF convergence criterion is 10**(-8)
 A restricted Hartree-Fock SCF calculation will be
 performed using Pulay DIIS extrapolation
 SCF converges when DIIS error is below 1.0E-08
Finding J and K together
 Job number = 22, Threshold = 1.00E-11
Integral type ranges set in mkLRange.C for JobNum: 22  <1-6|1-6>
 MakeJK  time:  CPU       0.11 s  wall       0.11 s
Fock build time:  0.11 s (CPU) 0.11 s (wall)
DIIS Errors:  Max 1.10E+00 RMS 2.15E-01

Current DIIS subspace size = 1
REM_GRID_RESTART_DIIS = 0

 ---------------------------------------
  Cycle       Energy         DIIS Error
 ---------------------------------------
    1    -152.6431845697      2.15E-01  00000
Finding J and K together
 Job number = 22, Threshold = 1.00E-11
Integral type ranges set in mkLRange.C for JobNum: 22  <1-6|1-6>
 MakeJK  time:  CPU       0.16 s  wall       0.17 s
Fock build time:  0.17 s (CPU) 0.17 s (wall)
DIIS Errors:  Max 5.78E-02 RMS 1.29E-02

Current DIIS subspace size = 2
REM_GRID_RESTART_DIIS = 0

    2    -152.9892075503      1.29E-02  00000
Finding J and K together
 Job number = 22, Threshold = 1.00E-11
Integral type ranges set in mkLRange.C for JobNum: 22  <1-6|1-6>
 MakeJK  time:  CPU       0.16 s  wall       0.17 s
Fock build time:  0.16 s (CPU) 0.17 s (wall)
DIIS Errors:  Max 1.79E-02 RMS 3.45E-03

Current DIIS subspace size = 3
REM_GRID_RESTART_DIIS = 0

    3    -153.0133529705      3.45E-03  00000
Finding J and K together
 Job number = 22, Threshold = 1.00E-11
Integral type ranges set in mkLRange.C for JobNum: 22  <1-6|1-6>
 MakeJK  time:  CPU       0.19 s  wall       0.24 s
Fock build time:  0.19 s (CPU) 0.24 s (wall)
DIIS Errors:  Max 6.26E-03 RMS 1.18E-03

Current DIIS subspace size = 4
REM_GRID_RESTART_DIIS = 0

    4    -153.0151465430      1.18E-03  00000
Finding J and K together
 Job number = 22, Threshold = 1.00E-11
Integral type ranges set in mkLRange.C for JobNum: 22  <1-6|1-6>
 MakeJK  time:  CPU       0.19 s  wall       0.19 s
Fock build time:  0.19 s (CPU) 0.19 s (wall)
DIIS Errors:  Max 7.27E-04 RMS 9.75E-05

Current DIIS subspace size = 5
REM_GRID_RESTART_DIIS = 0

    5    -153.0152909875      9.75E-05  00000
Finding J and K together
 Job number = 22, Threshold = 1.00E-11
Integral type ranges set in mkLRange.C for JobNum: 22  <1-6|1-6>
 MakeJK  time:  CPU       0.19 s  wall       0.19 s
Fock build time:  0.19 s (CPU) 0.19 s (wall)
DIIS Errors:  Max 1.09E-04 RMS 1.51E-05

Current DIIS subspace size = 6
REM_GRID_RESTART_DIIS = 0

    6    -153.0152942766      1.51E-05  00000
Finding J and K together
 Job number = 22, Threshold = 1.00E-11
Integral type ranges set in mkLRange.C for JobNum: 22  <1-6|1-6>
 MakeJK  time:  CPU       0.18 s  wall       0.18 s
Fock build time:  0.18 s (CPU) 0.18 s (wall)
DIIS Errors:  Max 1.76E-05 RMS 3.10E-06

Current DIIS subspace size = 7
REM_GRID_RESTART_DIIS = 0

    7    -153.0152943494      3.10E-06  00000
Finding J and K together
 Job number = 22, Threshold = 1.00E-11
Integral type ranges set in mkLRange.C for JobNum: 22  <1-6|1-6>
 MakeJK  time:  CPU       0.16 s  wall       0.16 s
Fock build time:  0.16 s (CPU) 0.16 s (wall)
DIIS Errors:  Max 6.96E-06 RMS 1.37E-06

Current DIIS subspace size = 8
REM_GRID_RESTART_DIIS = 0

    8    -153.0152943512      1.37E-06  00000
Finding J and K together
 Job number = 22, Threshold = 1.00E-11
Integral type ranges set in mkLRange.C for JobNum: 22  <1-6|1-6>
 MakeJK  time:  CPU       0.18 s  wall       0.18 s
Fock build time:  0.18 s (CPU) 0.18 s (wall)
DIIS Errors:  Max 1.98E-06 RMS 3.46E-07

Current DIIS subspace size = 9
REM_GRID_RESTART_DIIS = 0

    9    -153.0152943515      3.46E-07  00000
Finding J and K together
 Job number = 22, Threshold = 1.00E-11
Integral type ranges set in mkLRange.C for JobNum: 22  <1-6|1-6>
 MakeJK  time:  CPU       0.14 s  wall       0.15 s
Fock build time:  0.14 s (CPU) 0.15 s (wall)
DIIS Errors:  Max 7.64E-07 RMS 1.39E-07

Current DIIS subspace size = 10
REM_GRID_RESTART_DIIS = 0

   10    -153.0152943515      1.39E-07  00000
Finding J and K together
 Job number = 22, Threshold = 1.00E-11
Integral type ranges set in mkLRange.C for JobNum: 22  <1-6|1-6>
 MakeJK  time:  CPU       0.18 s  wall       0.18 s
Fock build time:  0.18 s (CPU) 0.18 s (wall)
DIIS Errors:  Max 6.67E-08 RMS 1.38E-08

Current DIIS subspace size = 11
REM_GRID_RESTART_DIIS = 0

   11    -153.0152943515      1.38E-08  00000
Finding J and K together
 Job number = 22, Threshold = 1.00E-11
Integral type ranges set in mkLRange.C for JobNum: 22  <1-6|1-6>
 MakeJK  time:  CPU       0.15 s  wall       0.15 s
Fock build time:  0.15 s (CPU) 0.15 s (wall)
DIIS Errors:  Max 1.86E-08 RMS 3.22E-09

Current DIIS subspace size = 12
REM_GRID_RESTART_DIIS = 0

   12    -153.0152943515      3.22E-09  00000 Convergence criterion met
 ---------------------------------------
 SCF time:  CPU 2.04 s  wall 2.10 s
 SCF   energy in the final basis set = -153.01529435
 Total energy in the final basis set = -153.01529435
drvman_main.C: 73: calling DrvMan  Calculating analytic gradient of the SCF energy
drvman.C : 218: Calculating analytic gradient of the SCF energy
drvman.C: 244: calling SCF_Grad for normal SCF gradient
 Job number = 111, Threshold = 1.00E-11
Integral type ranges set in mkLRange.C for JobNum: 11  <1-6|7-7>
 Warning:  Cost of integrals step H3 set to -1669862155
 Warning:  Retrieved cost of -1669862155 for integrals step H3
 Warning:  Retrieved cost of -1669862155 for integrals step H3
 Warning:  Retrieved cost of -1669862155 for integrals step H3
Finding J and K together
 ML is being used
 Job number = 122, Threshold = 1.00E-11
Integral type ranges set in mkLRange.C for JobNum: 22  <1-6|1-6>
 MakeJK  time:  CPU       0.45 s  wall       0.52 s
 Gradient of SCF Energy
            1           2           3           4           5           6
    1   0.0382453  -0.0701799  -0.0002762  -0.0075146   0.0612151  -0.0010019
    2   0.0121513  -0.0047172   0.0009725   0.0005192   0.0023324  -0.0087347
    3   0.0202019  -0.0199163   0.0028365   0.0011568   0.0125228  -0.0077846
            7           8           9          10
    1   0.0021128  -0.0196884  -0.0018162  -0.0010960
    2  -0.0115059   0.0102855   0.0018600  -0.0031629
    3  -0.0153802   0.0081163   0.0017252  -0.0034787
 Max gradient component =       7.018E-02
 RMS gradient           =       2.037E-02
drvman.C: 248: out of SCF_Grad for normal SCF gradient
 Gradient time:  CPU 0.47 s  wall 0.55 s
 ------------------------------------------------------------------------------
                     drvman        : Timing summary (seconds)
 ------------------------------------------------------------------------------
     job step          cpu (% of tot)      sys (% of tot)     wall (% of tot)
 ------------------------------------------------------------------------------
 ------------------------------------------------------------------------------
   Grand Totals     0.4680E+00          0.2000E-05          0.5463E+00
 ------------------------------------------------------------------------------
drvman_main.C: 77: out of DrvMan  Time for this dynamics step: 2.5 s (CPU) 2.7 s (wall)

TIME STEP #2 (t = 20.000 a.u. = 0.48378 fs)
--------------------------------------
 Instantaneous Temperature = 628.9 K
 ----------------------------------------------------------------
             Standard Nuclear Orientation (Angstroms)
    I     Atom           X                Y                Z
 ----------------------------------------------------------------
    1      C       4.1313459898     1.3231442455     0.4827547848
    2      C       3.0421579463     0.9777376821    -0.2299834527
    3      H       4.0567569773     1.9427741407     1.3682779466
    4      H       5.0992834227     0.9537613094     0.2433062204
    5      C       1.7107238573     1.4094635497     0.0874921292
    6      C       0.6313559445     1.0378406003    -0.5908952161
    7      H       0.6917498512     0.3698143296    -1.4876131635
    8      H      -0.3905490211     1.4220391764    -0.3038904451
    9      H       3.1161128345     0.3471015490    -1.0974055124
   10      H       1.5980341290     2.0458229136     0.9404872678
 ----------------------------------------------------------------
 Nuclear Repulsion Energy =   104.1599816325 hartrees
 There are       15 alpha and       15 beta electrons

                       Distance Matrix (Angstroms)
             C (  1)   C (  2)   H (  3)   H (  4)   C (  5)   C (  6)
   C (  2)  1.346712
   H (  3)  1.083354  2.124887
   H (  4)  1.063335  2.111005  1.824985
   C (  5)  2.454199  1.435233  2.725565  3.422613
   C (  6)  3.672064  2.438408  4.048535  4.545914  1.327911
   H (  7)  4.077010  2.734158  4.685466  4.771103  2.144793  1.119826
   H (  8)  4.590874  3.462130  4.779732  5.536874  2.137449  1.128836
   H (  9)  2.116663  1.074985  3.083922  2.469516  2.123138  2.628248
   H ( 10)  2.673846  2.143899  2.497787  3.733284  1.070165  2.072590
             H (  7)   H (  8)   H (  9)
   H (  8)  1.918267
   H (  9)  2.455670  3.752577
   H ( 10)  3.086426  2.427353  3.056669

 Applying Cartesian multipole field
    Component          Value
    ---------          -----
     (2,0,0)        1.00000E-11
     (0,2,0)        2.00000E-11
     (0,0,2)       -3.00000E-10
 Nucleus-field energy     =     0.0000000007 hartrees
 ENuRep (before)= 104.1599816325
 ENucField = 0.0000000007
 ENuRep (after) = 104.1599816332
 Job number = 2, Threshold = 1.00E-11
Integral type ranges set in mkLRange.C for JobNum: 2  <1-6|1-6>
Symmetry turned off temporarily
Symmetry turned back on
 Job number = 11, Threshold = 1.00E-11
Integral type ranges set in mkLRange.C for JobNum: 11  <1-6|7-7>
 Smallest overlap matrix eigenvalue = 1.82E-01
 Multipole matrices computed through 2nd order
 Guess from superposition of atomic densities
 Warning:  Energy on first SCF cycle will be non-variational
 SAD guess density has 30.000000 electrons
 SCF convergence criterion is 10**(-8)
 A restricted Hartree-Fock SCF calculation will be
 performed using Pulay DIIS extrapolation
 SCF converges when DIIS error is below 1.0E-08
Finding J and K together
 Job number = 22, Threshold = 1.00E-11
Integral type ranges set in mkLRange.C for JobNum: 22  <1-6|1-6>
 MakeJK  time:  CPU       0.11 s  wall       0.12 s
Fock build time:  0.11 s (CPU) 0.12 s (wall)
DIIS Errors:  Max 1.12E+00 RMS 2.15E-01

Current DIIS subspace size = 1
REM_GRID_RESTART_DIIS = 0

 ---------------------------------------
  Cycle       Energy         DIIS Error
 ---------------------------------------
    1    -152.6438661392      2.15E-01  00000
Finding J and K together
 Job number = 22, Threshold = 1.00E-11
Integral type ranges set in mkLRange.C for JobNum: 22  <1-6|1-6>
 MakeJK  time:  CPU       0.16 s  wall       0.16 s
Fock build time:  0.16 s (CPU) 0.17 s (wall)
DIIS Errors:  Max 5.84E-02 RMS 1.29E-02

Current DIIS subspace size = 2
REM_GRID_RESTART_DIIS = 0

    2    -152.9861648159      1.29E-02  00000
Finding J and K together
 Job number = 22, Threshold = 1.00E-11
Integral type ranges set in mkLRange.C for JobNum: 22  <1-6|1-6>
 MakeJK  time:  CPU       0.16 s  wall       0.16 s
Fock build time:  0.16 s (CPU) 0.16 s (wall)
DIIS Errors:  Max 1.81E-02 RMS 3.43E-03

Current DIIS subspace size = 3
REM_GRID_RESTART_DIIS = 0

    3    -153.0103627279      3.43E-03  00000
Finding J and K together
 Job number = 22, Threshold = 1.00E-11
Integral type ranges set in mkLRange.C for JobNum: 22  <1-6|1-6>
 MakeJK  time:  CPU       0.14 s  wall       0.15 s
Fock build time:  0.14 s (CPU) 0.15 s (wall)
DIIS Errors:  Max 6.40E-03 RMS 1.10E-03

Current DIIS subspace size = 4
REM_GRID_RESTART_DIIS = 0

    4    -153.0121640786      1.10E-03  00000
Finding J and K together
 Job number = 22, Threshold = 1.00E-11
Integral type ranges set in mkLRange.C for JobNum: 22  <1-6|1-6>
 MakeJK  time:  CPU       0.17 s  wall       0.17 s
Fock build time:  0.17 s (CPU) 0.17 s (wall)
DIIS Errors:  Max 7.30E-04 RMS 9.95E-05

Current DIIS subspace size = 5
REM_GRID_RESTART_DIIS = 0

    5    -153.0122912980      9.95E-05  00000
Finding J and K together
 Job number = 22, Threshold = 1.00E-11
Integral type ranges set in mkLRange.C for JobNum: 22  <1-6|1-6>
 MakeJK  time:  CPU       0.16 s  wall       0.16 s
Fock build time:  0.16 s (CPU) 0.16 s (wall)
DIIS Errors:  Max 1.20E-04 RMS 1.88E-05

Current DIIS subspace size = 6
REM_GRID_RESTART_DIIS = 0

    6    -153.0122946627      1.88E-05  00000
Finding J and K together
 Job number = 22, Threshold = 1.00E-11
Integral type ranges set in mkLRange.C for JobNum: 22  <1-6|1-6>
 MakeJK  time:  CPU       0.16 s  wall       0.16 s
Fock build time:  0.16 s (CPU) 0.16 s (wall)
DIIS Errors:  Max 3.33E-05 RMS 4.55E-06

Current DIIS subspace size = 7
REM_GRID_RESTART_DIIS = 0

    7    -153.0122947580      4.55E-06  00000
Finding J and K together
 Job number = 22, Threshold = 1.00E-11
Integral type ranges set in mkLRange.C for JobNum: 22  <1-6|1-6>
 MakeJK  time:  CPU       0.15 s  wall       0.15 s
Fock build time:  0.15 s (CPU) 0.15 s (wall)
DIIS Errors:  Max 1.14E-05 RMS 2.06E-06

Current DIIS subspace size = 8
REM_GRID_RESTART_DIIS = 0

    8    -153.0122947624      2.06E-06  00000
Finding J and K together
 Job number = 22, Threshold = 1.00E-11
Integral type ranges set in mkLRange.C for JobNum: 22  <1-6|1-6>
 MakeJK  time:  CPU       0.15 s  wall       0.15 s
Fock build time:  0.15 s (CPU) 0.15 s (wall)
DIIS Errors:  Max 3.43E-06 RMS 6.26E-07

Current DIIS subspace size = 9
REM_GRID_RESTART_DIIS = 0

    9    -153.0122947629      6.26E-07  00000
Finding J and K together
 Job number = 22, Threshold = 1.00E-11
Integral type ranges set in mkLRange.C for JobNum: 22  <1-6|1-6>
 MakeJK  time:  CPU       0.14 s  wall       0.14 s
Fock build time:  0.14 s (CPU) 0.14 s (wall)
DIIS Errors:  Max 9.49E-07 RMS 1.94E-07

Current DIIS subspace size = 10
REM_GRID_RESTART_DIIS = 0

   10    -153.0122947630      1.94E-07  00000
Finding J and K together
 Job number = 22, Threshold = 1.00E-11
Integral type ranges set in mkLRange.C for JobNum: 22  <1-6|1-6>
 MakeJK  time:  CPU       0.17 s  wall       0.17 s
Fock build time:  0.17 s (CPU) 0.17 s (wall)
DIIS Errors:  Max 9.37E-08 RMS 1.65E-08

Current DIIS subspace size = 11
REM_GRID_RESTART_DIIS = 0

   11    -153.0122947630      1.65E-08  00000
Finding J and K together
 Job number = 22, Threshold = 1.00E-11
Integral type ranges set in mkLRange.C for JobNum: 22  <1-6|1-6>
 MakeJK  time:  CPU       0.16 s  wall       0.17 s
Fock build time:  0.16 s (CPU) 0.17 s (wall)
DIIS Errors:  Max 2.96E-08 RMS 5.24E-09

Current DIIS subspace size = 12
REM_GRID_RESTART_DIIS = 0

   12    -153.0122947630      5.24E-09  00000 Convergence criterion met
 ---------------------------------------
 SCF time:  CPU 1.87 s  wall 1.89 s
 SCF   energy in the final basis set = -153.01229476
 Total energy in the final basis set = -153.01229476
drvman_main.C: 73: calling DrvMan  Calculating analytic gradient of the SCF energy
drvman.C : 218: Calculating analytic gradient of the SCF energy
drvman.C: 244: calling SCF_Grad for normal SCF gradient
 Job number = 111, Threshold = 1.00E-11
Integral type ranges set in mkLRange.C for JobNum: 11  <1-6|7-7>
Finding J and K together
 ML is being used
 Job number = 122, Threshold = 1.00E-11
Integral type ranges set in mkLRange.C for JobNum: 22  <1-6|1-6>
 MakeJK  time:  CPU       0.44 s  wall       0.44 s
 Gradient of SCF Energy
            1           2           3           4           5           6
    1   0.0527211  -0.0732507   0.0003243  -0.0162836   0.0552654   0.0174425
    2   0.0118880  -0.0070984  -0.0002297   0.0039643   0.0023625  -0.0055494
    3   0.0190706  -0.0228414   0.0025264   0.0054913   0.0090776   0.0046754
            7           8           9          10
    1   0.0031117  -0.0337067  -0.0064905   0.0008665
    2  -0.0187395   0.0163967   0.0057863  -0.0087808
    3  -0.0257155   0.0114141   0.0059184  -0.0096170
 Max gradient component =       7.325E-02
 RMS gradient           =       2.301E-02
drvman.C: 248: out of SCF_Grad for normal SCF gradient
 Gradient time:  CPU 0.46 s  wall 0.46 s
 ------------------------------------------------------------------------------
                     drvman        : Timing summary (seconds)
 ------------------------------------------------------------------------------
     job step          cpu (% of tot)      sys (% of tot)     wall (% of tot)
 ------------------------------------------------------------------------------
 ------------------------------------------------------------------------------
   Grand Totals     0.4560E+00          0.3000E-05          0.4573E+00
 ------------------------------------------------------------------------------
drvman_main.C: 77: out of DrvMan  Time for this dynamics step: 2.4 s (CPU) 2.4 s (wall)

TIME STEP #3 (t = 40.000 a.u. = 0.96755 fs)
--------------------------------------
 Instantaneous Temperature = 567.2 K
 ----------------------------------------------------------------
             Standard Nuclear Orientation (Angstroms)
    I     Atom           X                Y                Z
 ----------------------------------------------------------------
    1      C       4.1359887862     1.3229575417     0.4815198977
    2      C       3.0417302810     0.9802130344    -0.2298527937
    3      H       4.0595440166     1.9342766554     1.3715024241
    4      H       5.0974191735     0.9447352991     0.2633799963
    5      C       1.7099098339     1.4095061794     0.0819797659
    6      C       0.6310299811     1.0365418600    -0.5854654016
    7      H       0.6882695356     0.3653784260    -1.4957758816
    8      H      -0.4033057540     1.4339120759    -0.2984483285
    9      H       3.0886566908     0.3546834957    -1.0977395564
   10      H       1.6041894948     2.0360332740     0.9343743396
 ----------------------------------------------------------------
 Nuclear Repulsion Energy =   104.1846769421 hartrees
 There are       15 alpha and       15 beta electrons

                       Distance Matrix (Angstroms)
             C (  1)   C (  2)   H (  3)   H (  4)   C (  5)   C (  6)
   C (  2)  1.349417
   H (  3)  1.082416  2.123799
   H (  4)  1.055929  2.114331  1.812267
   C (  5)  2.460281  1.433624  2.731123  3.424053
   C (  6)  3.674946  2.437439  4.048501  4.547263  1.322334
   H (  7)  4.088206  2.742145  4.695553  4.782351  2.150178  1.132432
   H (  8)  4.607153  3.475460  4.791255  5.550939  2.147324  1.144610
   H (  9)  2.128032  1.070849  3.087862  2.497185  2.098888  2.601401
   H ( 10)  2.669000  2.129954  2.496037  3.720728  1.063151  2.062992
             H (  7)   H (  8)   H (  9)
   H (  8)  1.940849
   H (  9)  2.433188  3.741310
   H ( 10)  3.087981  2.431551  3.026560

 Applying Cartesian multipole field
    Component          Value
    ---------          -----
     (2,0,0)        1.00000E-11
     (0,2,0)        2.00000E-11
     (0,0,2)       -3.00000E-10
 Nucleus-field energy     =     0.0000000007 hartrees
 ENuRep (before)= 104.1846769421
 ENucField = 0.0000000007
 ENuRep (after) = 104.1846769428
 Job number = 2, Threshold = 1.00E-11
Integral type ranges set in mkLRange.C for JobNum: 2  <1-6|1-6>
Symmetry turned off temporarily
Symmetry turned back on
 Job number = 11, Threshold = 1.00E-11
Integral type ranges set in mkLRange.C for JobNum: 11  <1-6|7-7>
 Smallest overlap matrix eigenvalue = 1.80E-01
 Multipole matrices computed through 2nd order
 Guess from superposition of atomic densities
 Warning:  Energy on first SCF cycle will be non-variational
 SAD guess density has 30.000000 electrons
 SCF convergence criterion is 10**(-8)
 A restricted Hartree-Fock SCF calculation will be
 performed using Pulay DIIS extrapolation
 SCF converges when DIIS error is below 1.0E-08
Finding J and K together
 Job number = 22, Threshold = 1.00E-11
Integral type ranges set in mkLRange.C for JobNum: 22  <1-6|1-6>
 MakeJK  time:  CPU       0.10 s  wall       0.11 s
Fock build time:  0.10 s (CPU) 0.11 s (wall)
DIIS Errors:  Max 1.13E+00 RMS 2.16E-01

Current DIIS subspace size = 1
REM_GRID_RESTART_DIIS = 0

 ---------------------------------------
  Cycle       Energy         DIIS Error
 ---------------------------------------
    1    -152.6479513155      2.16E-01  00000
Finding J and K together
 Job number = 22, Threshold = 1.00E-11
Integral type ranges set in mkLRange.C for JobNum: 22  <1-6|1-6>
 MakeJK  time:  CPU       0.14 s  wall       0.14 s
Fock build time:  0.14 s (CPU) 0.14 s (wall)
DIIS Errors:  Max 5.88E-02 RMS 1.29E-02

Current DIIS subspace size = 2
REM_GRID_RESTART_DIIS = 0

    2    -152.9823674375      1.29E-02  00000
Finding J and K together
 Job number = 22, Threshold = 1.00E-11
Integral type ranges set in mkLRange.C for JobNum: 22  <1-6|1-6>
 MakeJK  time:  CPU       0.15 s  wall       0.15 s
Fock build time:  0.15 s (CPU) 0.15 s (wall)
DIIS Errors:  Max 1.81E-02 RMS 3.42E-03

Current DIIS subspace size = 3
REM_GRID_RESTART_DIIS = 0

    3    -153.0066346106      3.42E-03  00000
Finding J and K together
 Job number = 22, Threshold = 1.00E-11
Integral type ranges set in mkLRange.C for JobNum: 22  <1-6|1-6>
 MakeJK  time:  CPU       0.17 s  wall       0.17 s
Fock build time:  0.17 s (CPU) 0.17 s (wall)
DIIS Errors:  Max 6.44E-03 RMS 1.05E-03

Current DIIS subspace size = 4
REM_GRID_RESTART_DIIS = 0

    4    -153.0084435860      1.05E-03  00000
Finding J and K together
 Job number = 22, Threshold = 1.00E-11
Integral type ranges set in mkLRange.C for JobNum: 22  <1-6|1-6>
 MakeJK  time:  CPU       0.19 s  wall       0.19 s
Fock build time:  0.19 s (CPU) 0.19 s (wall)
DIIS Errors:  Max 7.28E-04 RMS 1.02E-04

Current DIIS subspace size = 5
REM_GRID_RESTART_DIIS = 0

    5    -153.0085605734      1.02E-04  00000
Finding J and K together
 Job number = 22, Threshold = 1.00E-11
Integral type ranges set in mkLRange.C for JobNum: 22  <1-6|1-6>
 MakeJK  time:  CPU       0.16 s  wall       0.16 s
Fock build time:  0.16 s (CPU) 0.16 s (wall)
DIIS Errors:  Max 1.30E-04 RMS 2.22E-05

Current DIIS subspace size = 6
REM_GRID_RESTART_DIIS = 0

    6    -153.0085639792      2.22E-05  00000
Finding J and K together
 Job number = 22, Threshold = 1.00E-11
Integral type ranges set in mkLRange.C for JobNum: 22  <1-6|1-6>
 MakeJK  time:  CPU       0.16 s  wall       0.16 s
Fock build time:  0.16 s (CPU) 0.16 s (wall)
DIIS Errors:  Max 4.47E-05 RMS 5.47E-06

Current DIIS subspace size = 7
REM_GRID_RESTART_DIIS = 0

    7    -153.0085640984      5.47E-06  00000
Finding J and K together
 Job number = 22, Threshold = 1.00E-11
Integral type ranges set in mkLRange.C for JobNum: 22  <1-6|1-6>
 MakeJK  time:  CPU       0.16 s  wall       0.16 s
Fock build time:  0.16 s (CPU) 0.16 s (wall)
DIIS Errors:  Max 1.46E-05 RMS 2.58E-06

Current DIIS subspace size = 8
REM_GRID_RESTART_DIIS = 0

    8    -153.0085641053      2.58E-06  00000
Finding J and K together
 Job number = 22, Threshold = 1.00E-11
Integral type ranges set in mkLRange.C for JobNum: 22  <1-6|1-6>
 MakeJK  time:  CPU       0.17 s  wall       0.17 s
Fock build time:  0.17 s (CPU) 0.17 s (wall)
DIIS Errors:  Max 4.25E-06 RMS 8.07E-07

Current DIIS subspace size = 9
REM_GRID_RESTART_DIIS = 0

    9    -153.0085641062      8.07E-07  00000
Finding J and K together
 Job number = 22, Threshold = 1.00E-11
Integral type ranges set in mkLRange.C for JobNum: 22  <1-6|1-6>
 MakeJK  time:  CPU       0.16 s  wall       0.17 s
Fock build time:  0.16 s (CPU) 0.17 s (wall)
DIIS Errors:  Max 9.86E-07 RMS 2.12E-07

Current DIIS subspace size = 10
REM_GRID_RESTART_DIIS = 0

   10    -153.0085641063      2.12E-07  00000
Finding J and K together
 Job number = 22, Threshold = 1.00E-11
Integral type ranges set in mkLRange.C for JobNum: 22  <1-6|1-6>
 MakeJK  time:  CPU       0.16 s  wall       0.16 s
Fock build time:  0.16 s (CPU) 0.16 s (wall)
DIIS Errors:  Max 1.18E-07 RMS 2.02E-08

Current DIIS subspace size = 11
REM_GRID_RESTART_DIIS = 0

   11    -153.0085641064      2.02E-08  00000
Finding J and K together
 Job number = 22, Threshold = 1.00E-11
Integral type ranges set in mkLRange.C for JobNum: 22  <1-6|1-6>
 MakeJK  time:  CPU       0.15 s  wall       0.16 s
Fock build time:  0.15 s (CPU) 0.16 s (wall)
DIIS Errors:  Max 3.75E-08 RMS 6.75E-09

Current DIIS subspace size = 12
REM_GRID_RESTART_DIIS = 0

   12    -153.0085641064      6.75E-09  00000 Convergence criterion met
 ---------------------------------------
 SCF time:  CPU 1.88 s  wall 1.90 s
 SCF   energy in the final basis set = -153.00856411
 Total energy in the final basis set = -153.00856411
drvman_main.C: 73: calling DrvMan  Calculating analytic gradient of the SCF energy
drvman.C : 218: Calculating analytic gradient of the SCF energy
drvman.C: 244: calling SCF_Grad for normal SCF gradient
 Job number = 111, Threshold = 1.00E-11
Integral type ranges set in mkLRange.C for JobNum: 11  <1-6|7-7>
Finding J and K together
 ML is being used
 Job number = 122, Threshold = 1.00E-11
Integral type ranges set in mkLRange.C for JobNum: 22  <1-6|1-6>
 MakeJK  time:  CPU       0.41 s  wall       0.42 s
 Gradient of SCF Energy
            1           2           3           4           5           6
    1   0.0634712  -0.0743253   0.0010024  -0.0228393   0.0481330   0.0326109
    2   0.0117462  -0.0082553  -0.0014577   0.0067825   0.0015632  -0.0029038
    3   0.0178360  -0.0237182   0.0021943   0.0089989   0.0045479   0.0158120
            7           8           9          10
    1   0.0037496  -0.0436201  -0.0109359   0.0027535
    2  -0.0237891   0.0210548   0.0088754  -0.0136163
    3  -0.0332837   0.0134399   0.0090030  -0.0148301
 Max gradient component =       7.433E-02
 RMS gradient           =       2.573E-02
drvman.C: 248: out of SCF_Grad for normal SCF gradient
 Gradient time:  CPU 0.43 s  wall 0.44 s
 ------------------------------------------------------------------------------
                     drvman        : Timing summary (seconds)
 ------------------------------------------------------------------------------
     job step          cpu (% of tot)      sys (% of tot)     wall (% of tot)
 ------------------------------------------------------------------------------
 ------------------------------------------------------------------------------
   Grand Totals     0.4320E+00          0.2000E-05          0.4387E+00
 ------------------------------------------------------------------------------
drvman_main.C: 77: out of DrvMan  Time for this dynamics step: 2.4 s (CPU) 2.4 s (wall)

TIME STEP #4 (t = 60.000 a.u. = 1.45133 fs)
--------------------------------------
 Instantaneous Temperature = 490.2 K
 ----------------------------------------------------------------
             Standard Nuclear Orientation (Angstroms)
    I     Atom           X                Y                Z
 ----------------------------------------------------------------
    1      C       4.1400174012     1.3226571752     0.4801124203
    2      C       3.0420218273     0.9827682697    -0.2294926249
    3      H       4.0622155601     1.9259471193     1.3744740769
    4      H       5.0981863795     0.9349278333     0.2824169572
    5      C       1.7086300496     1.4095336827     0.0764233950
    6      C       0.6303884577     1.0352712184    -0.5801885926
    7      H       0.6843572102     0.3636834119    -1.5001037759
    8      H      -0.4110367429     1.4433591200    -0.2945547059
    9      H       3.0624605398     0.3612428463    -1.0991108908
   10      H       1.6100276125     2.0278124542     0.9299700747
 ----------------------------------------------------------------
 Nuclear Repulsion Energy =   104.2176915763 hartrees
 There are       15 alpha and       15 beta electrons

                       Distance Matrix (Angstroms)
             C (  1)   C (  2)   H (  3)   H (  4)   C (  5)   C (  6)
   C (  2)  1.350799
   H (  3)  1.081617  2.122049
   H (  4)  1.052381  2.119470  1.802205
   C (  5)  2.466203  1.433055  2.736966  3.428816
   C (  6)  3.677543  2.437564  4.048635  4.551415  1.316745
   H (  7)  4.096642  2.748873  4.702530  4.794329  2.151366  1.140257
   H (  8)  4.618092  3.484249  4.798806  5.562638  2.152152  1.154421
   H (  9)  2.139952  1.069087  3.092965  2.526245  2.076933  2.576542
   H ( 10)  2.664670  2.118273  2.494231  3.712273  1.058552  2.055580
             H (  7)   H (  8)   H (  9)
   H (  8)  1.954210
   H (  9)  2.411675  3.726053
   H ( 10)  3.087305  2.434286  3.000697

 Applying Cartesian multipole field
    Component          Value
    ---------          -----
     (2,0,0)        1.00000E-11
     (0,2,0)        2.00000E-11
     (0,0,2)       -3.00000E-10
 Nucleus-field energy     =     0.0000000007 hartrees
 ENuRep (before)= 104.2176915763
 ENucField = 0.0000000007
 ENuRep (after) = 104.2176915770
 Job number = 2, Threshold = 1.00E-11
Integral type ranges set in mkLRange.C for JobNum: 2  <1-6|1-6>
Symmetry turned off temporarily
Symmetry turned back on
 Job number = 11, Threshold = 1.00E-11
Integral type ranges set in mkLRange.C for JobNum: 11  <1-6|7-7>
 Smallest overlap matrix eigenvalue = 1.79E-01
 Multipole matrices computed through 2nd order
 Guess from superposition of atomic densities
 Warning:  Energy on first SCF cycle will be non-variational
 SAD guess density has 30.000000 electrons
 SCF convergence criterion is 10**(-8)
 A restricted Hartree-Fock SCF calculation will be
 performed using Pulay DIIS extrapolation
 SCF converges when DIIS error is below 1.0E-08
Finding J and K together
 Job number = 22, Threshold = 1.00E-11
Integral type ranges set in mkLRange.C for JobNum: 22  <1-6|1-6>
 MakeJK  time:  CPU       0.13 s  wall       0.13 s
Fock build time:  0.13 s (CPU) 0.13 s (wall)
DIIS Errors:  Max 1.14E+00 RMS 2.16E-01

Current DIIS subspace size = 1
REM_GRID_RESTART_DIIS = 0

 ---------------------------------------
  Cycle       Energy         DIIS Error
 ---------------------------------------
    1    -152.6543173171      2.16E-01  00000
Finding J and K together
 Job number = 22, Threshold = 1.00E-11
Integral type ranges set in mkLRange.C for JobNum: 22  <1-6|1-6>
 MakeJK  time:  CPU       0.13 s  wall       0.13 s
Fock build time:  0.13 s (CPU) 0.13 s (wall)
DIIS Errors:  Max 5.92E-02 RMS 1.29E-02

Current DIIS subspace size = 2
REM_GRID_RESTART_DIIS = 0

    2    -152.9789780783      1.29E-02  00000
Finding J and K together
 Job number = 22, Threshold = 1.00E-11
Integral type ranges set in mkLRange.C for JobNum: 22  <1-6|1-6>
 MakeJK  time:  CPU       0.14 s  wall       0.14 s
Fock build time:  0.14 s (CPU) 0.14 s (wall)
DIIS Errors:  Max 1.82E-02 RMS 3.41E-03

Current DIIS subspace size = 3
REM_GRID_RESTART_DIIS = 0

    3    -153.0033099570      3.41E-03  00000
Finding J and K together
 Job number = 22, Threshold = 1.00E-11
Integral type ranges set in mkLRange.C for JobNum: 22  <1-6|1-6>
 MakeJK  time:  CPU       0.15 s  wall       0.15 s
Fock build time:  0.15 s (CPU) 0.15 s (wall)
DIIS Errors:  Max 6.37E-03 RMS 1.01E-03

Current DIIS subspace size = 4
REM_GRID_RESTART_DIIS = 0

    4    -153.0051235734      1.01E-03  00000
Finding J and K together
 Job number = 22, Threshold = 1.00E-11
Integral type ranges set in mkLRange.C for JobNum: 22  <1-6|1-6>
 MakeJK  time:  CPU       0.19 s  wall       0.20 s
Fock build time:  0.20 s (CPU) 0.20 s (wall)
DIIS Errors:  Max 7.22E-04 RMS 1.03E-04

Current DIIS subspace size = 5
REM_GRID_RESTART_DIIS = 0

    5    -153.0052331705      1.03E-04  00000
Finding J and K together
 Job number = 22, Threshold = 1.00E-11
Integral type ranges set in mkLRange.C for JobNum: 22  <1-6|1-6>
 MakeJK  time:  CPU       0.18 s  wall       0.18 s
Fock build time:  0.18 s (CPU) 0.18 s (wall)
DIIS Errors:  Max 1.37E-04 RMS 2.43E-05

Current DIIS subspace size = 6
REM_GRID_RESTART_DIIS = 0

    6    -153.0052365671      2.43E-05  00000
Finding J and K together
 Job number = 22, Threshold = 1.00E-11
Integral type ranges set in mkLRange.C for JobNum: 22  <1-6|1-6>
 MakeJK  time:  CPU       0.18 s  wall       0.19 s
Fock build time:  0.18 s (CPU) 0.19 s (wall)
DIIS Errors:  Max 5.16E-05 RMS 6.08E-06

Current DIIS subspace size = 7
REM_GRID_RESTART_DIIS = 0

    7    -153.0052367039      6.08E-06  00000
Finding J and K together
 Job number = 22, Threshold = 1.00E-11
Integral type ranges set in mkLRange.C for JobNum: 22  <1-6|1-6>
 MakeJK  time:  CPU       0.20 s  wall       0.19 s
Fock build time:  0.20 s (CPU) 0.19 s (wall)
DIIS Errors:  Max 1.64E-05 RMS 2.88E-06

Current DIIS subspace size = 8
REM_GRID_RESTART_DIIS = 0

    8    -153.0052367126      2.88E-06  00000
Finding J and K together
 Job number = 22, Threshold = 1.00E-11
Integral type ranges set in mkLRange.C for JobNum: 22  <1-6|1-6>
 MakeJK  time:  CPU       0.19 s  wall       0.19 s
Fock build time:  0.19 s (CPU) 0.19 s (wall)
DIIS Errors:  Max 4.52E-06 RMS 8.92E-07

Current DIIS subspace size = 9
REM_GRID_RESTART_DIIS = 0

    9    -153.0052367138      8.92E-07  00000
Finding J and K together
 Job number = 22, Threshold = 1.00E-11
Integral type ranges set in mkLRange.C for JobNum: 22  <1-6|1-6>
 MakeJK  time:  CPU       0.17 s  wall       0.17 s
Fock build time:  0.17 s (CPU) 0.17 s (wall)
DIIS Errors:  Max 9.56E-07 RMS 2.15E-07

Current DIIS subspace size = 10
REM_GRID_RESTART_DIIS = 0

   10    -153.0052367140      2.15E-07  00000
Finding J and K together
 Job number = 22, Threshold = 1.00E-11
Integral type ranges set in mkLRange.C for JobNum: 22  <1-6|1-6>
 MakeJK  time:  CPU       0.19 s  wall       0.19 s
Fock build time:  0.19 s (CPU) 0.19 s (wall)
DIIS Errors:  Max 1.34E-07 RMS 2.31E-08

Current DIIS subspace size = 11
REM_GRID_RESTART_DIIS = 0

   11    -153.0052367140      2.31E-08  00000
Finding J and K together
 Job number = 22, Threshold = 1.00E-11
Integral type ranges set in mkLRange.C for JobNum: 22  <1-6|1-6>
 MakeJK  time:  CPU       0.19 s  wall       0.19 s
Fock build time:  0.19 s (CPU) 0.19 s (wall)
DIIS Errors:  Max 4.19E-08 RMS 7.64E-09

Current DIIS subspace size = 12
REM_GRID_RESTART_DIIS = 0

   12    -153.0052367140      7.64E-09  00000 Convergence criterion met
 ---------------------------------------
 SCF time:  CPU 2.06 s  wall 2.08 s
 SCF   energy in the final basis set = -153.00523671
 Total energy in the final basis set = -153.00523671
drvman_main.C: 73: calling DrvMan  Calculating analytic gradient of the SCF energy
drvman.C : 218: Calculating analytic gradient of the SCF energy
drvman.C: 244: calling SCF_Grad for normal SCF gradient
 Job number = 111, Threshold = 1.00E-11
Integral type ranges set in mkLRange.C for JobNum: 11  <1-6|7-7>
Finding J and K together
 ML is being used
 Job number = 122, Threshold = 1.00E-11
Integral type ranges set in mkLRange.C for JobNum: 22  <1-6|1-6>
 MakeJK  time:  CPU       0.38 s  wall       0.38 s
 Gradient of SCF Energy
            1           2           3           4           5           6
    1   0.0692103  -0.0733457   0.0017181  -0.0259506   0.0402443   0.0441210
    2   0.0122600  -0.0078575  -0.0026620   0.0083760  -0.0004685  -0.0009075
    3   0.0165897  -0.0220657   0.0018957   0.0114969  -0.0015872   0.0251436
            7           8           9          10
    1   0.0040743  -0.0493763  -0.0151395   0.0044442
    2  -0.0265434   0.0241545   0.0107517  -0.0171032
    3  -0.0378474   0.0142398   0.0104540  -0.0183193
 Max gradient component =       7.335E-02
 RMS gradient           =       2.752E-02
drvman.C: 248: out of SCF_Grad for normal SCF gradient
 Gradient time:  CPU 0.40 s  wall 0.41 s
 ------------------------------------------------------------------------------
                     drvman        : Timing summary (seconds)
 ------------------------------------------------------------------------------
     job step          cpu (% of tot)      sys (% of tot)     wall (% of tot)
 ------------------------------------------------------------------------------
 ------------------------------------------------------------------------------
   Grand Totals     0.4040E+00          0.1000E-05          0.4074E+00
 ------------------------------------------------------------------------------
drvman_main.C: 77: out of DrvMan  Time for this dynamics step: 2.5 s (CPU) 2.5 s (wall)

TIME STEP #5 (t = 80.000 a.u. = 1.93511 fs)
--------------------------------------
 Instantaneous Temperature = 421.3 K
 ----------------------------------------------------------------
             Standard Nuclear Orientation (Angstroms)
    I     Atom           X                Y                Z
 ----------------------------------------------------------------
    1      C       4.1433763006     1.3222381747     0.4785444121
    2      C       3.0430231059     0.9853995378    -0.2289189363
    3      H       4.0646891554     1.9179242898     1.3772273100
    4      H       5.1019435177     0.9241553218     0.3001292868
    5      C       1.7069608401     1.4095657197     0.0708823828
    6      C       0.6293199958     1.0340093587    -0.5751550860
    7      H       0.6799754566     0.3650466302    -1.5000710341
    8      H      -0.4130787767     1.4500231723    -0.2923017429
    9      H       3.0380087028     0.3665634215    -1.1016866913
   10      H       1.6153536911     2.0215622045     0.9276764941
 ----------------------------------------------------------------
 Nuclear Repulsion Energy =   104.2543203748 hartrees
 There are       15 alpha and       15 beta electrons

                       Distance Matrix (Angstroms)
             C (  1)   C (  2)   H (  3)   H (  4)   C (  5)   C (  6)
   C (  2)  1.350830
   H (  3)  1.081048  2.119696
   H (  4)  1.053163  2.126687  1.795442
   C (  5)  2.471828  1.433478  2.742963  3.437162
   C (  6)  3.679939  2.438894  4.049057  4.558788  1.311380
   H (  7)  4.101985  2.754026  4.706013  4.806987  2.147932  1.142605
   H (  8)  4.622966  3.487769  4.801736  5.571623  2.151304  1.157441
   H (  9)  2.152274  1.069910  3.099324  2.556526  2.057780  2.554310
   H ( 10)  2.661141  2.109404  2.492405  3.708696  1.056895  2.050860
             H (  7)   H (  8)   H (  9)
   H (  8)  1.957204
   H (  9)  2.391450  3.706615
   H ( 10)  3.084305  2.435065  2.980148

 Applying Cartesian multipole field
    Component          Value
    ---------          -----
     (2,0,0)        1.00000E-11
     (0,2,0)        2.00000E-11
     (0,0,2)       -3.00000E-10
 Nucleus-field energy     =     0.0000000008 hartrees
 ENuRep (before)= 104.2543203748
 ENucField = 0.0000000008
 ENuRep (after) = 104.2543203756
 Job number = 2, Threshold = 1.00E-11
Integral type ranges set in mkLRange.C for JobNum: 2  <1-6|1-6>
Symmetry turned off temporarily
Symmetry turned back on
 Job number = 11, Threshold = 1.00E-11
Integral type ranges set in mkLRange.C for JobNum: 11  <1-6|7-7>
 Smallest overlap matrix eigenvalue = 1.77E-01
 Multipole matrices computed through 2nd order
 Guess from superposition of atomic densities
 Warning:  Energy on first SCF cycle will be non-variational
 SAD guess density has 30.000000 electrons
 SCF convergence criterion is 10**(-8)
 A restricted Hartree-Fock SCF calculation will be
 performed using Pulay DIIS extrapolation
 SCF converges when DIIS error is below 1.0E-08
Finding J and K together
 Job number = 22, Threshold = 1.00E-11
Integral type ranges set in mkLRange.C for JobNum: 22  <1-6|1-6>
 MakeJK  time:  CPU       0.14 s  wall       0.14 s
Fock build time:  0.14 s (CPU) 0.14 s (wall)
DIIS Errors:  Max 1.16E+00 RMS 2.17E-01

Current DIIS subspace size = 1
REM_GRID_RESTART_DIIS = 0

 ---------------------------------------
  Cycle       Energy         DIIS Error
 ---------------------------------------
    1    -152.6620730227      2.17E-01  00000
Finding J and K together
 Job number = 22, Threshold = 1.00E-11
Integral type ranges set in mkLRange.C for JobNum: 22  <1-6|1-6>
 MakeJK  time:  CPU       0.19 s  wall       0.19 s
Fock build time:  0.19 s (CPU) 0.19 s (wall)
DIIS Errors:  Max 5.95E-02 RMS 1.29E-02

Current DIIS subspace size = 2
REM_GRID_RESTART_DIIS = 0

    2    -152.9768410625      1.29E-02  00000
Finding J and K together
 Job number = 22, Threshold = 1.00E-11
Integral type ranges set in mkLRange.C for JobNum: 22  <1-6|1-6>
 MakeJK  time:  CPU       0.19 s  wall       0.19 s
Fock build time:  0.19 s (CPU) 0.19 s (wall)
DIIS Errors:  Max 1.81E-02 RMS 3.40E-03

Current DIIS subspace size = 3
REM_GRID_RESTART_DIIS = 0

    3    -153.0012179847      3.40E-03  00000
Finding J and K together
 Job number = 22, Threshold = 1.00E-11
Integral type ranges set in mkLRange.C for JobNum: 22  <1-6|1-6>
 MakeJK  time:  CPU       0.19 s  wall       0.19 s
Fock build time:  0.19 s (CPU) 0.19 s (wall)
DIIS Errors:  Max 6.20E-03 RMS 9.73E-04

Current DIIS subspace size = 4
REM_GRID_RESTART_DIIS = 0

    4    -153.0030316870      9.73E-04  00000
Finding J and K together
 Job number = 22, Threshold = 1.00E-11
Integral type ranges set in mkLRange.C for JobNum: 22  <1-6|1-6>
 MakeJK  time:  CPU       0.19 s  wall       0.20 s
Fock build time:  0.19 s (CPU) 0.20 s (wall)
DIIS Errors:  Max 7.12E-04 RMS 1.03E-04

Current DIIS subspace size = 5
REM_GRID_RESTART_DIIS = 0

    5    -153.0031335217      1.03E-04  00000
Finding J and K together
 Job number = 22, Threshold = 1.00E-11
Integral type ranges set in mkLRange.C for JobNum: 22  <1-6|1-6>
 MakeJK  time:  CPU       0.19 s  wall       0.19 s
Fock build time:  0.19 s (CPU) 0.19 s (wall)
DIIS Errors:  Max 1.40E-04 RMS 2.51E-05

Current DIIS subspace size = 6
REM_GRID_RESTART_DIIS = 0

    6    -153.0031368501      2.51E-05  00000
Finding J and K together
 Job number = 22, Threshold = 1.00E-11
Integral type ranges set in mkLRange.C for JobNum: 22  <1-6|1-6>
 MakeJK  time:  CPU       0.19 s  wall       0.20 s
Fock build time:  0.19 s (CPU) 0.20 s (wall)
DIIS Errors:  Max 5.43E-05 RMS 6.37E-06

Current DIIS subspace size = 7
REM_GRID_RESTART_DIIS = 0

    7    -153.0031369943      6.37E-06  00000
Finding J and K together
 Job number = 22, Threshold = 1.00E-11
Integral type ranges set in mkLRange.C for JobNum: 22  <1-6|1-6>
 MakeJK  time:  CPU       0.12 s  wall       0.12 s
Fock build time:  0.12 s (CPU) 0.12 s (wall)
DIIS Errors:  Max 1.67E-05 RMS 2.93E-06

Current DIIS subspace size = 8
REM_GRID_RESTART_DIIS = 0

    8    -153.0031370037      2.93E-06  00000
Finding J and K together
 Job number = 22, Threshold = 1.00E-11
Integral type ranges set in mkLRange.C for JobNum: 22  <1-6|1-6>
 MakeJK  time:  CPU       0.12 s  wall       0.12 s
Fock build time:  0.12 s (CPU) 0.12 s (wall)
DIIS Errors:  Max 4.37E-06 RMS 8.90E-07

Current DIIS subspace size = 9
REM_GRID_RESTART_DIIS = 0

    9    -153.0031370050      8.90E-07  00000
Finding J and K together
 Job number = 22, Threshold = 1.00E-11
Integral type ranges set in mkLRange.C for JobNum: 22  <1-6|1-6>
 MakeJK  time:  CPU       0.15 s  wall       0.15 s
Fock build time:  0.15 s (CPU) 0.15 s (wall)
DIIS Errors:  Max 9.30E-07 RMS 2.07E-07

Current DIIS subspace size = 10
REM_GRID_RESTART_DIIS = 0

   10    -153.0031370052      2.07E-07  00000
Finding J and K together
 Job number = 22, Threshold = 1.00E-11
Integral type ranges set in mkLRange.C for JobNum: 22  <1-6|1-6>
 MakeJK  time:  CPU       0.15 s  wall       0.15 s
Fock build time:  0.15 s (CPU) 0.15 s (wall)
DIIS Errors:  Max 1.41E-07 RMS 2.43E-08

Current DIIS subspace size = 11
REM_GRID_RESTART_DIIS = 0

   11    -153.0031370052      2.43E-08  00000
Finding J and K together
 Job number = 22, Threshold = 1.00E-11
Integral type ranges set in mkLRange.C for JobNum: 22  <1-6|1-6>
 MakeJK  time:  CPU       0.14 s  wall       0.14 s
Fock build time:  0.14 s (CPU) 0.14 s (wall)
DIIS Errors:  Max 4.29E-08 RMS 7.91E-09

Current DIIS subspace size = 12
REM_GRID_RESTART_DIIS = 0

   12    -153.0031370052      7.91E-09  00000 Convergence criterion met
 ---------------------------------------
 SCF time:  CPU 2.00 s  wall 2.04 s
 SCF   energy in the final basis set = -153.00313701
 Total energy in the final basis set = -153.00313701
drvman_main.C: 73: calling DrvMan  Calculating analytic gradient of the SCF energy
drvman.C : 218: Calculating analytic gradient of the SCF energy
drvman.C: 244: calling SCF_Grad for normal SCF gradient
 Job number = 111, Threshold = 1.00E-11
Integral type ranges set in mkLRange.C for JobNum: 11  <1-6|7-7>
Finding J and K together
 ML is being used
 Job number = 122, Threshold = 1.00E-11
Integral type ranges set in mkLRange.C for JobNum: 22  <1-6|1-6>
 MakeJK  time:  CPU       0.47 s  wall       0.55 s
 Gradient of SCF Energy
            1           2           3           4           5           6
    1   0.0693043  -0.0702719   0.0024250  -0.0249737   0.0319878   0.0517045
    2   0.0137786  -0.0058043  -0.0037847   0.0083401  -0.0039513   0.0003736
    3   0.0152369  -0.0177278   0.0016952   0.0130139  -0.0096389   0.0323145
            7           8           9          10
    1   0.0041403  -0.0510449  -0.0191336   0.0058622
    2  -0.0269957   0.0256494   0.0112460  -0.0188516
    3  -0.0393145   0.0138892   0.0100249  -0.0194934
 Max gradient component =       7.027E-02
 RMS gradient           =       2.790E-02
drvman.C: 248: out of SCF_Grad for normal SCF gradient
 Gradient time:  CPU 0.49 s  wall 0.58 s
 ------------------------------------------------------------------------------
                     drvman        : Timing summary (seconds)
 ------------------------------------------------------------------------------
     job step          cpu (% of tot)      sys (% of tot)     wall (% of tot)
 ------------------------------------------------------------------------------
 ------------------------------------------------------------------------------
   Grand Totals     0.4880E+00          0.3000E-05          0.5751E+00
 ------------------------------------------------------------------------------
drvman_main.C: 77: out of DrvMan  Time for this dynamics step: 2.5 s (CPU) 2.7 s (wall)

TIME STEP #6 (t = 100.000 a.u. = 2.41888 fs)
--------------------------------------
 Instantaneous Temperature = 377.4 K
 ----------------------------------------------------------------
             Standard Nuclear Orientation (Angstroms)
    I     Atom           X                Y                Z
 ----------------------------------------------------------------
    1      C       4.1460645744     1.3216858456     0.4768289634
    2      C       3.0447043727     0.9880869713    -0.2281737041
    3      H       4.0668833482     1.9103375236     1.3797852322
    4      H       5.1085780373     0.9124218905     0.3163421998
    5      C       1.7049820998     1.4096359919     0.0654346419
    6      C       0.6277512137     1.0327438843    -0.5704342719
    7      H       0.6751166689     0.3695201905    -1.4955086209
    8      H      -0.4092396049     1.4537319925    -0.2916490371
    9      H       3.0157613653     0.3705882760    -1.1054175259
   10      H       1.6200043485     2.0174839672     0.9276288706
 ----------------------------------------------------------------
 Nuclear Repulsion Energy =   104.2926763089 hartrees
 There are       15 alpha and       15 beta electrons

                       Distance Matrix (Angstroms)
             C (  1)   C (  2)   H (  3)   H (  4)   C (  5)   C (  6)
   C (  2)  1.349560
   H (  3)  1.080792  2.116820
   H (  4)  1.058152  2.135836  1.792170
   C (  5)  2.477068  1.434840  2.748963  3.448861
   C (  6)  3.682224  2.441475  4.049834  4.569317  1.306447
   H (  7)  4.104170  2.757482  4.705902  4.820075  2.139862  1.139242
   H (  8)  4.621557  3.485769  4.799777  5.577543  2.144618  1.153387
   H (  9)  2.164642  1.073172  3.106754  2.587444  2.041729  2.535202
   H ( 10)  2.658634  2.103642  2.490611  3.710119  1.058338  2.049017
             H (  7)   H (  8)   H (  9)
   H (  8)  1.949518
   H (  9)  2.372929  3.683212
   H ( 10)  3.078992  2.433575  2.965414

 Applying Cartesian multipole field
    Component          Value
    ---------          -----
     (2,0,0)        1.00000E-11
     (0,2,0)        2.00000E-11
     (0,0,2)       -3.00000E-10
 Nucleus-field energy     =     0.0000000008 hartrees
 ENuRep (before)= 104.2926763089
 ENucField = 0.0000000008
 ENuRep (after) = 104.2926763097
 Job number = 2, Threshold = 1.00E-11
Integral type ranges set in mkLRange.C for JobNum: 2  <1-6|1-6>
Symmetry turned off temporarily
Symmetry turned back on
 Job number = 11, Threshold = 1.00E-11
Integral type ranges set in mkLRange.C for JobNum: 11  <1-6|7-7>
 Smallest overlap matrix eigenvalue = 1.75E-01
 Multipole matrices computed through 2nd order
 Guess from superposition of atomic densities
 Warning:  Energy on first SCF cycle will be non-variational
 SAD guess density has 30.000000 electrons
 SCF convergence criterion is 10**(-8)
 A restricted Hartree-Fock SCF calculation will be
 performed using Pulay DIIS extrapolation
 SCF converges when DIIS error is below 1.0E-08
Finding J and K together
 Job number = 22, Threshold = 1.00E-11
Integral type ranges set in mkLRange.C for JobNum: 22  <1-6|1-6>
 MakeJK  time:  CPU       0.14 s  wall       0.15 s
Fock build time:  0.14 s (CPU) 0.15 s (wall)
DIIS Errors:  Max 1.17E+00 RMS 2.18E-01

Current DIIS subspace size = 1
REM_GRID_RESTART_DIIS = 0

 ---------------------------------------
  Cycle       Energy         DIIS Error
 ---------------------------------------
    1    -152.6709770569      2.18E-01  00000
Finding J and K together
 Job number = 22, Threshold = 1.00E-11
Integral type ranges set in mkLRange.C for JobNum: 22  <1-6|1-6>
 MakeJK  time:  CPU       0.19 s  wall       0.21 s
Fock build time:  0.19 s (CPU) 0.21 s (wall)
DIIS Errors:  Max 5.97E-02 RMS 1.29E-02

Current DIIS subspace size = 2
REM_GRID_RESTART_DIIS = 0

    2    -152.9762268443      1.29E-02  00000
Finding J and K together
 Job number = 22, Threshold = 1.00E-11
Integral type ranges set in mkLRange.C for JobNum: 22  <1-6|1-6>
 MakeJK  time:  CPU       0.18 s  wall       0.20 s
Fock build time:  0.18 s (CPU) 0.20 s (wall)
DIIS Errors:  Max 1.80E-02 RMS 3.39E-03

Current DIIS subspace size = 3
REM_GRID_RESTART_DIIS = 0

    3    -153.0006238730      3.39E-03  00000
Finding J and K together
 Job number = 22, Threshold = 1.00E-11
Integral type ranges set in mkLRange.C for JobNum: 22  <1-6|1-6>
 MakeJK  time:  CPU       0.17 s  wall       0.18 s
Fock build time:  0.17 s (CPU) 0.18 s (wall)
DIIS Errors:  Max 5.95E-03 RMS 9.29E-04

Current DIIS subspace size = 4
REM_GRID_RESTART_DIIS = 0

    4    -153.0024327947      9.29E-04  00000
Finding J and K together
 Job number = 22, Threshold = 1.00E-11
Integral type ranges set in mkLRange.C for JobNum: 22  <1-6|1-6>
 MakeJK  time:  CPU       0.13 s  wall       0.14 s
Fock build time:  0.14 s (CPU) 0.14 s (wall)
DIIS Errors:  Max 6.98E-04 RMS 1.02E-04

Current DIIS subspace size = 5
REM_GRID_RESTART_DIIS = 0

    5    -153.0025255291      1.02E-04  00000
Finding J and K together
 Job number = 22, Threshold = 1.00E-11
Integral type ranges set in mkLRange.C for JobNum: 22  <1-6|1-6>
 MakeJK  time:  CPU       0.13 s  wall       0.13 s
Fock build time:  0.13 s (CPU) 0.13 s (wall)
DIIS Errors:  Max 1.41E-04 RMS 2.44E-05

Current DIIS subspace size = 6
REM_GRID_RESTART_DIIS = 0

    6    -153.0025287339      2.44E-05  00000
Finding J and K together
 Job number = 22, Threshold = 1.00E-11
Integral type ranges set in mkLRange.C for JobNum: 22  <1-6|1-6>
 MakeJK  time:  CPU       0.12 s  wall       0.12 s
Fock build time:  0.12 s (CPU) 0.12 s (wall)
DIIS Errors:  Max 5.28E-05 RMS 6.23E-06

Current DIIS subspace size = 7
REM_GRID_RESTART_DIIS = 0

    7    -153.0025288755      6.23E-06  00000
Finding J and K together
 Job number = 22, Threshold = 1.00E-11
Integral type ranges set in mkLRange.C for JobNum: 22  <1-6|1-6>
 MakeJK  time:  CPU       0.14 s  wall       0.14 s
Fock build time:  0.14 s (CPU) 0.14 s (wall)
DIIS Errors:  Max 1.57E-05 RMS 2.78E-06

Current DIIS subspace size = 8
REM_GRID_RESTART_DIIS = 0

    8    -153.0025288842      2.78E-06  00000
Finding J and K together
 Job number = 22, Threshold = 1.00E-11
Integral type ranges set in mkLRange.C for JobNum: 22  <1-6|1-6>
 MakeJK  time:  CPU       0.14 s  wall       0.14 s
Fock build time:  0.14 s (CPU) 0.14 s (wall)
DIIS Errors:  Max 3.91E-06 RMS 8.13E-07

Current DIIS subspace size = 9
REM_GRID_RESTART_DIIS = 0

    9    -153.0025288854      8.13E-07  00000
Finding J and K together
 Job number = 22, Threshold = 1.00E-11
Integral type ranges set in mkLRange.C for JobNum: 22  <1-6|1-6>
 MakeJK  time:  CPU       0.13 s  wall       0.13 s
Fock build time:  0.13 s (CPU) 0.13 s (wall)
DIIS Errors:  Max 8.32E-07 RMS 1.81E-07

Current DIIS subspace size = 10
REM_GRID_RESTART_DIIS = 0

   10    -153.0025288855      1.81E-07  00000
Finding J and K together
 Job number = 22, Threshold = 1.00E-11
Integral type ranges set in mkLRange.C for JobNum: 22  <1-6|1-6>
 MakeJK  time:  CPU       0.15 s  wall       0.16 s
Fock build time:  0.15 s (CPU) 0.16 s (wall)
DIIS Errors:  Max 1.37E-07 RMS 2.37E-08

Current DIIS subspace size = 11
REM_GRID_RESTART_DIIS = 0

   11    -153.0025288855      2.37E-08  00000
Finding J and K together
 Job number = 22, Threshold = 1.00E-11
Integral type ranges set in mkLRange.C for JobNum: 22  <1-6|1-6>
 MakeJK  time:  CPU       0.17 s  wall       0.17 s
Fock build time:  0.17 s (CPU) 0.17 s (wall)
DIIS Errors:  Max 4.08E-08 RMS 7.58E-09

Current DIIS subspace size = 12
REM_GRID_RESTART_DIIS = 0

   12    -153.0025288855      7.58E-09  00000 Convergence criterion met
 ---------------------------------------
 SCF time:  CPU 1.84 s  wall 1.89 s
 SCF   energy in the final basis set = -153.00252889
 Total energy in the final basis set = -153.00252889
drvman_main.C: 73: calling DrvMan  Calculating analytic gradient of the SCF energy
drvman.C : 218: Calculating analytic gradient of the SCF energy
drvman.C: 244: calling SCF_Grad for normal SCF gradient
 Job number = 111, Threshold = 1.00E-11
Integral type ranges set in mkLRange.C for JobNum: 11  <1-6|7-7>
Finding J and K together
 ML is being used
 Job number = 122, Threshold = 1.00E-11
Integral type ranges set in mkLRange.C for JobNum: 22  <1-6|1-6>
 MakeJK  time:  CPU       0.44 s  wall       0.46 s
 Gradient of SCF Energy
            1           2           3           4           5           6
    1   0.0640000  -0.0651303   0.0030756  -0.0200787   0.0236944   0.0550634
    2   0.0163344  -0.0022609  -0.0047647   0.0066020  -0.0088228   0.0009112
    3   0.0135306  -0.0109351   0.0016602   0.0137630  -0.0195519   0.0370488
            7           8           9          10
    1   0.0039937  -0.0486525  -0.0229497   0.0069841
    2  -0.0251643   0.0254823   0.0104330  -0.0187502
    3  -0.0376352   0.0124399   0.0078131  -0.0181334
 Max gradient component =       6.513E-02
 RMS gradient           =       2.688E-02
drvman.C: 248: out of SCF_Grad for normal SCF gradient
 Gradient time:  CPU 0.46 s  wall 0.48 s
 ------------------------------------------------------------------------------
                     drvman        : Timing summary (seconds)
 ------------------------------------------------------------------------------
     job step          cpu (% of tot)      sys (% of tot)     wall (% of tot)
 ------------------------------------------------------------------------------
 ------------------------------------------------------------------------------
   Grand Totals     0.4640E+00          0.3000E-05          0.4764E+00
 ------------------------------------------------------------------------------
drvman_main.C: 77: out of DrvMan  Time for this dynamics step: 2.3 s (CPU) 2.4 s (wall)

TIME STEP #7 (t = 120.000 a.u. = 2.90266 fs)
--------------------------------------
 Instantaneous Temperature = 364.2 K
 ----------------------------------------------------------------
             Standard Nuclear Orientation (Angstroms)
    I     Atom           X                Y                Z
 ----------------------------------------------------------------
    1      C       4.1481335502     1.3209754563     0.4749825855
    2      C       3.0470158749     0.9907962829    -0.2273226581
    3      H       4.0687231834     1.9032997249     1.3821518751
    4      H       5.1175259482     0.8999278046     0.3309693858
    5      C       1.7027740796     1.4097916383     0.0601760958
    6      C       0.6256496090     1.0314695927    -0.5660719622
    7      H       0.6697977412     0.3768930827    -1.4866100226
    8      H      -0.3997948696     1.4545048402    -0.2924296055
    9      H       2.9961582104     0.3734110776    -1.1100485608
   10      H       1.6238503202     2.0155660536     0.9296705145
 ----------------------------------------------------------------
 Nuclear Repulsion Energy =   104.3339342110 hartrees
 There are       15 alpha and       15 beta electrons

[...]
 ML is being used
 Job number = 122, Threshold = 1.00E-11
Integral type ranges set in mkLRange.C for JobNum: 22  <1-6|1-6>
 MakeJK  time:  CPU       0.43 s  wall       0.44 s
 Gradient of SCF Energy
            1           2           3           4           5           6
    1   0.0418343  -0.0508844  -0.0039763  -0.0091583   0.0446816  -0.0261787
    2  -0.0175996   0.0188150   0.0101971   0.0004459  -0.0279896   0.0245510
    3   0.0094276   0.0057265  -0.0029009  -0.0078437  -0.0067267  -0.0101000
            7           8           9          10
    1  -0.0139564  -0.0101384   0.0182449   0.0095317
    2  -0.0120711  -0.0051247   0.0026175   0.0061585
    3   0.0006226  -0.0065164   0.0026516   0.0156595
 Max gradient component =       5.088E-02
 RMS gradient           =       1.901E-02
drvman.C: 248: out of SCF_Grad for normal SCF gradient
 Gradient time:  CPU 0.45 s  wall 0.46 s
 ------------------------------------------------------------------------------
                     drvman        : Timing summary (seconds)
 ------------------------------------------------------------------------------
     job step          cpu (% of tot)      sys (% of tot)     wall (% of tot)
 ------------------------------------------------------------------------------
 ------------------------------------------------------------------------------
   Grand Totals     0.4480E+00          0.1000E-05          0.4636E+00
 ------------------------------------------------------------------------------
drvman_main.C: 77: out of DrvMan  Time for this dynamics step: 1.8 s (CPU) 1.9 s (wall)

TIME STEP #399 (t = 7960.000 a.u. = 192.54319 fs)
--------------------------------------
 Instantaneous Temperature = 448.5 K
 ----------------------------------------------------------------
             Standard Nuclear Orientation (Angstroms)
    I     Atom           X                Y                Z
 ----------------------------------------------------------------
    1      C       4.2330654897     1.1339506745    -0.2555913267
    2      C       2.9439921139     0.7864212896    -0.2953177760
    3      H       4.5575801744     2.0774998123     0.1940038437
    4      H       4.9059501697     0.6063321947    -0.9037654119
    5      C       1.8157786923     1.4376257997     0.3590794953
    6      C       0.5205443538     1.3789952006    -0.0261212831
    7      H       0.1465856466     0.6206137395    -0.7445678533
    8      H      -0.3176819949     1.9232585586     0.4365667151
    9      H       2.7768907543    -0.1220225566    -0.8891125019
   10      H       2.1282951089     2.1089054964     1.1809140034
 ----------------------------------------------------------------
 Nuclear Repulsion Energy =   102.8765763335 hartrees
 There are       15 alpha and       15 beta electrons

                       Distance Matrix (Angstroms)
             C (  1)   C (  2)   H (  3)   H (  4)   C (  5)   C (  6)
   C (  2)  1.335689
   H (  3)  1.094409  2.123673
   H (  4)  1.072979  2.062018  1.868366
   C (  5)  2.512631  1.457796  2.820313  3.440201
   C (  6)  3.727669  2.509325  4.102928  4.538618  1.352571
   H (  7)  4.147521  2.838098  4.739231  4.762048  2.161424  1.109573
   H (  8)  4.670267  3.530803  4.883729  5.551317  2.189406  1.101329
   H (  9)  2.024664  1.098083  3.030164  2.250247  2.216805  2.844100
   H ( 10)  2.728396  2.143265  2.622290  3.784043  1.106207  2.138823
             H (  7)   H (  8)   H (  9)
   H (  8)  1.818655
   H (  9)  2.736952  3.939160
   H ( 10)  3.138418  2.563459  3.111708

 Applying Cartesian multipole field
    Component          Value
    ---------          -----
     (2,0,0)        1.00000E-11
     (0,2,0)        2.00000E-11
     (0,0,2)       -3.00000E-10
 Nucleus-field energy     =     0.0000000061 hartrees
 ENuRep (before)= 102.8765763335
 ENucField = 0.0000000061
 ENuRep (after) = 102.8765763396
 Job number = 2, Threshold = 1.00E-11
Integral type ranges set in mkLRange.C for JobNum: 2  <1-6|1-6>
Symmetry turned off temporarily
Symmetry turned back on
 Job number = 11, Threshold = 1.00E-11
Integral type ranges set in mkLRange.C for JobNum: 11  <1-6|7-7>
 Smallest overlap matrix eigenvalue = 1.86E-01
 Multipole matrices computed through 2nd order
 Extrapolating the Fock matrix using 12 points and a 6th-order polynomial
 Alpha Fock matrix extrapolation
 Skip SCF guess (diagonalize extrapolated Fock matrix instead)
 SCF convergence criterion is 10**(-8)
 A restricted Hartree-Fock SCF calculation will be
 performed using Pulay DIIS extrapolation
 SCF converges when DIIS error is below 1.0E-08
Extrapolated Fock matrix used in lieu of Fock build
Fock build time:  0.00 s (CPU) 0.00 s (wall)
DIIS Errors:  Max 3.19E-02 RMS 3.46E-03

Current DIIS subspace size = 1
REM_GRID_RESTART_DIIS = 0

 ---------------------------------------
  Cycle       Energy         DIIS Error
 ---------------------------------------
    1    -307.0988552973      3.46E-03  00000
Finding J and K together
 Job number = 22, Threshold = 1.00E-11
Integral type ranges set in mkLRange.C for JobNum: 22  <1-6|1-6>
 MakeJK  time:  CPU       0.19 s  wall       0.21 s
Fock build time:  0.19 s (CPU) 0.21 s (wall)
DIIS Errors:  Max 4.38E-03 RMS 3.91E-04

Current DIIS subspace size = 2
REM_GRID_RESTART_DIIS = 0

    2    -153.0046527442      3.91E-04  00000
Finding J and K together
 Job number = 22, Threshold = 1.00E-11
Integral type ranges set in mkLRange.C for JobNum: 22  <1-6|1-6>
 MakeJK  time:  CPU       0.19 s  wall       0.20 s
Fock build time:  0.19 s (CPU) 0.20 s (wall)
DIIS Errors:  Max 3.50E-04 RMS 3.43E-05

Current DIIS subspace size = 3
REM_GRID_RESTART_DIIS = 0

    3    -153.0046553557      3.43E-05  00000
Finding J and K together
 Job number = 22, Threshold = 1.00E-11
Integral type ranges set in mkLRange.C for JobNum: 22  <1-6|1-6>
 MakeJK  time:  CPU       0.19 s  wall       0.19 s
Fock build time:  0.19 s (CPU) 0.19 s (wall)
DIIS Errors:  Max 1.31E-05 RMS 2.55E-06

Current DIIS subspace size = 4
REM_GRID_RESTART_DIIS = 0

    4    -153.0046553931      2.55E-06  00000
Finding J and K together
 Job number = 22, Threshold = 1.00E-11
Integral type ranges set in mkLRange.C for JobNum: 22  <1-6|1-6>
 MakeJK  time:  CPU       0.13 s  wall       0.13 s
Fock build time:  0.13 s (CPU) 0.13 s (wall)
DIIS Errors:  Max 7.54E-06 RMS 1.04E-06

Current DIIS subspace size = 5
REM_GRID_RESTART_DIIS = 0

    5    -153.0046553944      1.04E-06  00000
Finding J and K together
 Job number = 22, Threshold = 1.00E-11
Integral type ranges set in mkLRange.C for JobNum: 22  <1-6|1-6>
 MakeJK  time:  CPU       0.15 s  wall       0.16 s
Fock build time:  0.15 s (CPU) 0.16 s (wall)
DIIS Errors:  Max 2.15E-06 RMS 3.50E-07

Current DIIS subspace size = 6
REM_GRID_RESTART_DIIS = 0

    6    -153.0046553945      3.50E-07  00000
Finding J and K together
 Job number = 22, Threshold = 1.00E-11
Integral type ranges set in mkLRange.C for JobNum: 22  <1-6|1-6>
 MakeJK  time:  CPU       0.15 s  wall       0.15 s
Fock build time:  0.15 s (CPU) 0.15 s (wall)
DIIS Errors:  Max 9.08E-07 RMS 1.16E-07

Current DIIS subspace size = 7
REM_GRID_RESTART_DIIS = 0

    7    -153.0046553945      1.16E-07  00000
Finding J and K together
 Job number = 22, Threshold = 1.00E-11
Integral type ranges set in mkLRange.C for JobNum: 22  <1-6|1-6>
 MakeJK  time:  CPU       0.18 s  wall       0.18 s
Fock build time:  0.18 s (CPU) 0.18 s (wall)
DIIS Errors:  Max 9.42E-08 RMS 1.92E-08

Current DIIS subspace size = 8
REM_GRID_RESTART_DIIS = 0

    8    -153.0046553945      1.92E-08  00000
Finding J and K together
 Job number = 22, Threshold = 1.00E-11
Integral type ranges set in mkLRange.C for JobNum: 22  <1-6|1-6>
 MakeJK  time:  CPU       0.14 s  wall       0.14 s
Fock build time:  0.14 s (CPU) 0.14 s (wall)
DIIS Errors:  Max 2.58E-08 RMS 4.79E-09

Current DIIS subspace size = 9
REM_GRID_RESTART_DIIS = 0

    9    -153.0046553945      4.79E-09  00000 Convergence criterion met
 ---------------------------------------
 SCF time:  CPU 1.35 s  wall 1.38 s
 SCF   energy in the final basis set = -153.00465539
 Total energy in the final basis set = -153.00465539
drvman_main.C: 73: calling DrvMan  Calculating analytic gradient of the SCF energy
drvman.C : 218: Calculating analytic gradient of the SCF energy
drvman.C: 244: calling SCF_Grad for normal SCF gradient
 Job number = 111, Threshold = 1.00E-11
Integral type ranges set in mkLRange.C for JobNum: 11  <1-6|7-7>
Finding J and K together
 ML is being used
 Job number = 122, Threshold = 1.00E-11
Integral type ranges set in mkLRange.C for JobNum: 22  <1-6|1-6>
 MakeJK  time:  CPU       0.46 s  wall       0.46 s
 Gradient of SCF Energy
            1           2           3           4           5           6
    1   0.0446342  -0.0497271  -0.0031492  -0.0131465   0.0565287  -0.0215245
    2  -0.0246470   0.0369406   0.0147939   0.0033845  -0.0327050   0.0252170
    3   0.0048386   0.0192273  -0.0013510  -0.0043797  -0.0095086  -0.0120182
            7           8           9          10
    1  -0.0162107  -0.0209678   0.0125928   0.0109701
    2  -0.0192264   0.0018976  -0.0107068   0.0050516
    3  -0.0052255  -0.0004353  -0.0062471   0.0150996
 Max gradient component =       5.653E-02
 RMS gradient           =       2.210E-02
drvman.C: 248: out of SCF_Grad for normal SCF gradient
 Gradient time:  CPU 0.48 s  wall 0.48 s
 ------------------------------------------------------------------------------
                     drvman        : Timing summary (seconds)
 ------------------------------------------------------------------------------
     job step          cpu (% of tot)      sys (% of tot)     wall (% of tot)
 ------------------------------------------------------------------------------
 ------------------------------------------------------------------------------
   Grand Totals     0.4760E+00          0.1000E-05          0.4809E+00
 ------------------------------------------------------------------------------
drvman_main.C: 77: out of DrvMan  Time for this dynamics step: 1.9 s (CPU) 1.9 s (wall)

TIME STEP #400 (t = 7980.000 a.u. = 193.02697 fs)
--------------------------------------
 Instantaneous Temperature = 406.2 K
 ----------------------------------------------------------------
             Standard Nuclear Orientation (Angstroms)
    I     Atom           X                Y                Z
 ----------------------------------------------------------------
    1      C       4.2328227932     1.1324681815    -0.2558900000
    2      C       2.9433983618     0.7891663083    -0.2935223108
    3      H       4.5550583157     2.0825663135     0.1916926376
    4      H       4.9010399383     0.6097656581    -0.9044427535
    5      C       1.8211172068     1.4360111309     0.3572825709
    6      C       0.5187641945     1.3799210597    -0.0249324993
    7      H       0.1454108761     0.6063378333    -0.7419939790
    8      H      -0.3304366820     1.9313239347     0.4442880727
    9      H       2.7523425591    -0.1270780202    -0.9005576387
   10      H       2.1417957363     2.1048404216     1.1744714897
 ----------------------------------------------------------------
 Nuclear Repulsion Energy =   102.7947808414 hartrees
 There are       15 alpha and       15 beta electrons

                       Distance Matrix (Angstroms)
             C (  1)   C (  2)   H (  3)   H (  4)   C (  5)   C (  6)
   C (  2)  1.334874
   H (  3)  1.098568  2.122679
   H (  4)  1.067873  2.058584  1.868250
   C (  5)  2.506879  1.449645  2.814229  3.429367
   C (  6)  3.729451  2.509977  4.102719  4.535528  1.358439
   H (  7)  4.149704  2.839593  4.742996  4.758404  2.169046  1.118928
   H (  8)  4.685270  3.544980  4.894358  5.561829  2.209545  1.115955
   H (  9)  2.047895  1.115571  3.053739  2.271531  2.211920  2.833132
   H ( 10)  2.713639  2.128044  2.605799  3.764381  1.103615  2.144367
             H (  7)   H (  8)   H (  9)
   H (  8)  1.841001
   H (  9)  2.712772  3.943242
   H ( 10)  3.147047  2.583643  3.108050

 Applying Cartesian multipole field
    Component          Value
    ---------          -----
     (2,0,0)        1.00000E-11
     (0,2,0)        2.00000E-11
     (0,0,2)       -3.00000E-10
 Nucleus-field energy     =     0.0000000061 hartrees
 ENuRep (before)= 102.7947808414
 ENucField = 0.0000000061
 ENuRep (after) = 102.7947808475
 Job number = 2, Threshold = 1.00E-11
Integral type ranges set in mkLRange.C for JobNum: 2  <1-6|1-6>
Symmetry turned off temporarily
Symmetry turned back on
 Job number = 11, Threshold = 1.00E-11
Integral type ranges set in mkLRange.C for JobNum: 11  <1-6|7-7>
 Smallest overlap matrix eigenvalue = 1.86E-01
 Multipole matrices computed through 2nd order
 Extrapolating the Fock matrix using 12 points and a 6th-order polynomial
 Alpha Fock matrix extrapolation
 Skip SCF guess (diagonalize extrapolated Fock matrix instead)
 SCF convergence criterion is 10**(-8)
 A restricted Hartree-Fock SCF calculation will be
 performed using Pulay DIIS extrapolation
 SCF converges when DIIS error is below 1.0E-08
Extrapolated Fock matrix used in lieu of Fock build
Fock build time:  0.00 s (CPU) 0.00 s (wall)
DIIS Errors:  Max 2.38E-02 RMS 3.03E-03

Current DIIS subspace size = 1
REM_GRID_RESTART_DIIS = 0

 ---------------------------------------
  Cycle       Energy         DIIS Error
 ---------------------------------------
    1    -307.0721253012      3.03E-03  00000
Finding J and K together
 Job number = 22, Threshold = 1.00E-11
Integral type ranges set in mkLRange.C for JobNum: 22  <1-6|1-6>
 MakeJK  time:  CPU       0.20 s  wall       0.21 s
Fock build time:  0.20 s (CPU) 0.21 s (wall)
DIIS Errors:  Max 3.18E-03 RMS 3.59E-04

Current DIIS subspace size = 2
REM_GRID_RESTART_DIIS = 0

    2    -153.0016984130      3.59E-04  00000
Finding J and K together
 Job number = 22, Threshold = 1.00E-11
Integral type ranges set in mkLRange.C for JobNum: 22  <1-6|1-6>
 MakeJK  time:  CPU       0.19 s  wall       0.21 s
Fock build time:  0.19 s (CPU) 0.21 s (wall)
DIIS Errors:  Max 2.09E-04 RMS 2.97E-05

Current DIIS subspace size = 3
REM_GRID_RESTART_DIIS = 0

    3    -153.0017009013      2.97E-05  00000
Finding J and K together
 Job number = 22, Threshold = 1.00E-11
Integral type ranges set in mkLRange.C for JobNum: 22  <1-6|1-6>
 MakeJK  time:  CPU       0.20 s  wall       0.20 s
Fock build time:  0.20 s (CPU) 0.20 s (wall)
DIIS Errors:  Max 2.76E-05 RMS 4.72E-06

Current DIIS subspace size = 4
REM_GRID_RESTART_DIIS = 0

    4    -153.0017009540      4.72E-06  00000
Finding J and K together
 Job number = 22, Threshold = 1.00E-11
Integral type ranges set in mkLRange.C for JobNum: 22  <1-6|1-6>
 MakeJK  time:  CPU       0.19 s  wall       0.20 s
Fock build time:  0.19 s (CPU) 0.20 s (wall)
DIIS Errors:  Max 1.41E-05 RMS 2.33E-06

Current DIIS subspace size = 5
REM_GRID_RESTART_DIIS = 0

    5    -153.0017009569      2.33E-06  00000
Finding J and K together
 Job number = 22, Threshold = 1.00E-11
Integral type ranges set in mkLRange.C for JobNum: 22  <1-6|1-6>
 MakeJK  time:  CPU       0.19 s  wall       0.20 s
Fock build time:  0.19 s (CPU) 0.20 s (wall)
DIIS Errors:  Max 1.30E-06 RMS 2.21E-07

Current DIIS subspace size = 6
REM_GRID_RESTART_DIIS = 0

    6    -153.0017009575      2.21E-07  00000
Finding J and K together
 Job number = 22, Threshold = 1.00E-11
Integral type ranges set in mkLRange.C for JobNum: 22  <1-6|1-6>
 MakeJK  time:  CPU       0.19 s  wall       0.19 s
Fock build time:  0.19 s (CPU) 0.19 s (wall)
DIIS Errors:  Max 8.26E-07 RMS 1.10E-07

Current DIIS subspace size = 7
REM_GRID_RESTART_DIIS = 0

    7    -153.0017009575      1.10E-07  00000
Finding J and K together
 Job number = 22, Threshold = 1.00E-11
Integral type ranges set in mkLRange.C for JobNum: 22  <1-6|1-6>
 MakeJK  time:  CPU       0.19 s  wall       0.19 s
Fock build time:  0.19 s (CPU) 0.19 s (wall)
DIIS Errors:  Max 2.96E-07 RMS 4.00E-08

Current DIIS subspace size = 8
REM_GRID_RESTART_DIIS = 0

    8    -153.0017009575      4.00E-08  00000
Finding J and K together
 Job number = 22, Threshold = 1.00E-11
Integral type ranges set in mkLRange.C for JobNum: 22  <1-6|1-6>
 MakeJK  time:  CPU       0.19 s  wall       0.19 s
Fock build time:  0.19 s (CPU) 0.19 s (wall)
DIIS Errors:  Max 5.79E-08 RMS 9.06E-09

Current DIIS subspace size = 9
REM_GRID_RESTART_DIIS = 0

    9    -153.0017009575      9.06E-09  00000 Convergence criterion met
 ---------------------------------------
 SCF time:  CPU 1.55 s  wall 1.61 s
 SCF   energy in the final basis set = -153.00170096
 Total energy in the final basis set = -153.00170096
drvman_main.C: 73: calling DrvMan  Calculating analytic gradient of the SCF energy
drvman.C : 218: Calculating analytic gradient of the SCF energy
drvman.C: 244: calling SCF_Grad for normal SCF gradient
 Job number = 111, Threshold = 1.00E-11
Integral type ranges set in mkLRange.C for JobNum: 11  <1-6|7-7>
Finding J and K together
 ML is being used
 Job number = 122, Threshold = 1.00E-11
Integral type ranges set in mkLRange.C for JobNum: 22  <1-6|1-6>
 MakeJK  time:  CPU       0.46 s  wall       0.50 s
 Gradient of SCF Energy
            1           2           3           4           5           6
    1   0.0459709  -0.0468016  -0.0025029  -0.0163376   0.0671756  -0.0186374
    2  -0.0301216   0.0526654   0.0182549   0.0058583  -0.0361541   0.0253887
    3   0.0013002   0.0312703  -0.0003388  -0.0014067  -0.0110982  -0.0142226
            7           8           9          10
    1  -0.0175219  -0.0298646   0.0065940   0.0119255
    2  -0.0248632   0.0078725  -0.0218684   0.0029674
    3  -0.0095629   0.0047653  -0.0139269   0.0132203
 Max gradient component =       6.718E-02
 RMS gradient           =       2.568E-02
drvman.C: 248: out of SCF_Grad for normal SCF gradient
 Gradient time:  CPU 0.48 s  wall 0.52 s
 ------------------------------------------------------------------------------
                     drvman        : Timing summary (seconds)
 ------------------------------------------------------------------------------
     job step          cpu (% of tot)      sys (% of tot)     wall (% of tot)
 ------------------------------------------------------------------------------
 ------------------------------------------------------------------------------
   Grand Totals     0.4800E+00          0.2000E-05          0.5198E+00
 ------------------------------------------------------------------------------
drvman_main.C: 77: out of DrvMan  Time for this dynamics step: 2.1 s (CPU) 2.2 s (wall)

=============== TIME STEPS COMPLETED ==================

Step-to-Step energy fluctuations, |E(n) - E(n-1)|
Mean: 2.470e-07   Max: 1.109e-04   RMS: 3.677e-05
Overall energy fluctuations, |E(n) - E(0)|
Mean: 1.495e-04   Max: 3.178e-04   RMS: 5.683e-05   RMS(dE)/RMS(dV): 1.470e-02
Kinetic energy fluctuations, |T(n) - V(0)|
Mean: -1.322e-02   Max: 2.329e-02   RMS: 3.826e-03
Potential energy fluctuations, |V(n) - V(0)|
Mean: 1.337e-02   Max: 2.361e-02   RMS: 3.865e-03


 JobOver = TRUE
Archival summary:
1\1\qciep03\JobtypUnspecified\HF\STO-3G\46\jcartus\MonJun1812:53:442018MonJun1812:53:442018\0\\#,JobtypUnspecified,HF,STO-3G,\\0,1\C\H,1,1.11557\C,1,1.33487,2,113.079\H,3,1.06787,1,117.48,2,8.95785,0\H,3,1.09857,1,121.148,2,171.905,0\C,1,1.44964,2,118.567,3,-179.036,0\H,6,1.10361,1,112.203,2,161.196,0\C,6,1.35844,1,126.689,2,-25.2628,0\H,8,1.11595,6,126.217,1,-175.962,0\H,8,1.11893,6,121.921,1,16.1429,0\\HF=-153.001701\\@

 Total job time:  775.52s(wall), 753.74s(cpu) 
 Mon Jun 18 12:53:44 2018

        *************************************************************
        *                                                           *
        *  Thank you very much for using Q-Chem.  Have a nice day.  *
        *                                                           *
        *************************************************************


*** MISSION COMPLETED -- STARFLEET OUT ***

0 sent ACK to 0 
now end server 0 ... 
