Process 0 of 1 is on qciep03 - thread support 0
initial socket setup ...start
initial socket setup ...done 
now start server 0 ... 
qciep03.tugraz.at 127.0.1
Q-Chem Developer Version! Running on 127.0.1.*
                  Welcome to Q-Chem
     A Quantum Leap Into The Future Of Chemistry


 Q-Chem 5.0, Q-Chem, Inc., Pleasanton, CA (2017)

 Yihan Shao,  Zhengting Gan,  E. Epifanovsky,  A. T. B. Gilbert,  M. Wormit,  
 J. Kussmann,  A. W. Lange,  A. Behn,  Jia Deng,  Xintian Feng,  D. Ghosh,  
 M. Goldey,  P. R. Horn,  L. D. Jacobson,  I. Kaliman,  T. Kus,  A. Landau,  
 Jie Liu,  E. I. Proynov,  R. M. Richard,  R. P. Steele,  E. J. Sundstrom,  
 H. L. Woodcock III,  P. M. Zimmerman,  D. Zuev,  B. Albrecht,  E. Alguire,  
 S. A. Baeppler,  D. Barton,  Z. Benda,  Y. A. Bernard,  E. J. Berquist,  
 K. B. Bravaya,  H. Burton,  D. Casanova,  Chun-Min Chang,  Yunqing Chen,  
 A. Chien,  K. D. Closser,  M. P. Coons,  S. Dasgupta,  A. L. Dempwolff,  
 M. Diedenhofen,  Hainam Do,  R. G. Edgar,  Po-Tung Fang,  S. Fatehi,  
 Qingguo Feng,  J. Fosso-Tande,  Qinghui Ge,  A. Ghysels,  G. Gidofalvi,  
 J. Gomes,  J. Gonthier,  A. Gunina,  M. W. D. Hanson-Heine,  
 P. H. P. Harbach,  A. W. Hauser,  J. E. Herr,  E. G. Hohenstein,  
 Z. C. Holden,  Kerwin Hui,  T.-C. Jagau,  Hyunjun Ji,  B. Kaduk,  
 K. Khistyaev,  Jaehoon Kim,  P. Klunzinger,  K. Koh,  D. Kosenkov,  
 L. Koulias,  T. Kowalczyk,  C. M. Krauter,  A. Kunitsa,  Ka Un Lao,  
 A. Laurent,  K. V. Lawler,  Joonho Lee,  D. Lefrancois,  S. Lehtola,  
 D. S. Levine,  Yi-Pei Li,  You-Sheng Lin,  Fenglai Liu,  E. Livshits,  
 A. Luenser,  P. Manohar,  E. Mansoor,  S. F. Manzer,  Shan-Ping Mao,  
 Yuezhi Mao,  N. Mardirossian,  A. V. Marenich,  T. Markovich,  
 L. A. Martinez-Martinez,  S. A. Maurer,  N. J. Mayhall,  S. C. McKenzie,  
 J.-M. Mewes,  A. F. Morrison,  J. W. Mullinax,  K. Nanda,  
 T. S. Nguyen-Beck,  R. Olivares-Amaya,  J. A. Parkhill,  T. M. Perrine,  
 F. Plasser,  S. Prager,  A. Prociuk,  E. Ramos,  D. R. Rehn,  F. Rob,  
 M. Schneider,  N. Sergueev,  S. M. Sharada,  S. Sharma,  D. W. Small,  
 T. Stauch,  T. Stein,  Yu-Chuan Su,  A. J. W. Thom,  A. Tkatchenko,  
 T. Tsuchimochi,  L. Vogt,  O. Vydrov,  M. A. Watson,  J. Wenzel,  
 M. de Wergifosse,  T. A. Wesolowski,  A. White,  J. Witte,  A. Yamada,  
 Jun Yang,  K. Yao,  S. Yeganeh,  S. R. Yost,  Zhi-Qiang You,  A. Zech,  
 Igor Ying Zhang,  Xing Zhang,  Yan Zhao,  Ying Zhu,  B. R. Brooks,  
 G. K. L. Chan,  C. J. Cramer,  M. S. Gordon,  W. J. Hehre,  A. Klamt,  
 M. W. Schmidt,  C. D. Sherrill,  D. G. Truhlar,  A. Aspuru-Guzik,  R. Baer,  
 A. T. Bell,  N. A. Besley,  Jeng-Da Chai,  R. A. DiStasio Jr.,  A. Dreuw,  
 B. D. Dunietz,  T. R. Furlani,  Chao-Ping Hsu,  Yousung Jung,  Jing Kong,  
 D. S. Lambrecht,  WanZhen Liang,  C. Ochsenfeld,  V. A. Rassolov,  
 L. V. Slipchenko,  J. E. Subotnik,  T. Van Voorhis,  J. M. Herbert,  
 A. I. Krylov,  P. M. W. Gill,  M. Head-Gordon

 Contributors to earlier versions of Q-Chem not listed above: 
 R. D. Adamson,  B. Austin,  J. Baker,  G. J. O. Beran,  K. Brandhorst,  
 S. T. Brown,  E. F. C. Byrd,  A. K. Chakraborty,  C.-L. Cheng,  
 Siu Hung Chien,  D. M. Chipman,  D. L. Crittenden,  H. Dachsel,  
 R. J. Doerksen,  A. D. Dutoi,  L. Fusti-Molnar,  W. A. Goddard III,  
 A. Golubeva-Zadorozhnaya,  S. R. Gwaltney,  G. Hawkins,  A. Heyden,  
 S. Hirata,  G. Kedziora,  F. J. Keil,  C. Kelley,  Jihan Kim,  R. A. King,  
 R. Z. Khaliullin,  P. P. Korambath,  W. Kurlancheek,  A. M. Lee,  M. S. Lee,  
 S. V. Levchenko,  Ching Yeh Lin,  D. Liotard,  R. C. Lochan,  I. Lotan,  
 P. E. Maslen,  N. Nair,  D. P. O'Neill,  D. Neuhauser,  E. Neuscamman,  
 C. M. Oana,  R. Olson,  B. Peters,  R. Peverati,  P. A. Pieniazek,  
 Y. M. Rhee,  J. Ritchie,  M. A. Rohrdanz,  E. Rosta,  N. J. Russ,  
 H. F. Schaefer III,  N. E. Schultz,  N. Shenvi,  A. C. Simmonett,  A. Sodt,  
 D. Stuck,  K. S. Thanthiriwatte,  V. Vanovschi,  Tao Wang,  A. Warshel,  
 C. F. Williams,  Q. Wu,  X. Xu,  W. Zhang

 Please cite Q-Chem as follows:
 Y. Shao et al., Mol. Phys. 113, 184-215 (2015)
 DOI: 10.1080/00268976.2014.952696

 Q-Chem 5.0.2 for Intel X86 EM64T Linux

 Parts of Q-Chem use Armadillo 5.200.1 (Boston Tea Smuggler).
 http://arma.sourceforge.net/

 Q-Chem begins on Mon Jun 18 12:09:55 2018  


Host: 0

     Scratch files written to /home/jcartus/scratch/Butadien_11.mol.dir//
 Using version located at /usr/local/qchem/bin/qchem

 Parallel job on  1  processors
Symmetry disabled for AIMD jobs.

Total Memory Limit in MB = 2000
Mega-Array Size in MB = 192

Checking the input file for inconsistencies... 	...done.
Finally everything over in PARseQInput

--------------------------------------------------------------
User input:
--------------------------------------------------------------
$rem
AIMD_STEPS                    400
FOCK_EXTRAP_POINTS            12
MAX_SCF_CYCLES                100
BASIS                         sto-3g
AIMD_INIT_VELOC               thermal
FOCK_EXTRAP_ORDER             6
AIMD_TEMP                     400
AIMD_METHOD                   bomd
TIME_STEP                     20
METHOD                        hf
JOBTYPE                       aimd
$end

$molecule
0 1
C    7.65778    -2.01775    0.60569
C    6.61363    -1.31889    0.14578
H    8.55500    -1.50858    0.94307
H    7.65404    -3.10213    0.64848
C    5.39852    -1.94060    -0.31786
C    4.39639    -1.25212    -0.87682
H    4.44406    -0.17785    -1.02298
H    3.49949    -1.76198    -1.21403
H    6.67496    -0.23306    0.11559
H    5.30165    -3.01836    -0.20466
$end


--------------------------------------------------------------
 ----------------------------------------------------------------
             Standard Nuclear Orientation (Angstroms)
    I     Atom           X                Y                Z
 ----------------------------------------------------------------
    1      C       7.6577800000    -2.0177500000     0.6056900000
    2      C       6.6136300000    -1.3188900000     0.1457800000
    3      H       8.5550000000    -1.5085800000     0.9430700000
    4      H       7.6540400000    -3.1021300000     0.6484800000
    5      C       5.3985200000    -1.9406000000    -0.3178600000
    6      C       4.3963900000    -1.2521200000    -0.8768200000
    7      H       4.4440600000    -0.1778500000    -1.0229800000
    8      H       3.4994900000    -1.7619800000    -1.2140300000
    9      H       6.6749600000    -0.2330600000     0.1155900000
   10      H       5.3016500000    -3.0183600000    -0.2046600000
 ----------------------------------------------------------------
 Nuclear Repulsion Energy =   104.1613346563 hartrees
 There are       15 alpha and       15 beta electrons
 Requested basis set is STO-3G
 There are 14 shells and 26 basis functions

 Total QAlloc Memory Limit   2000 MB
 Mega-Array Size       188 MB
 MEM_STATIC part       192 MB

finished with qalloc call

                       Distance Matrix (Angstroms)
             C (  1)   C (  2)   H (  3)   H (  4)   C (  5)   C (  6)
   C (  2)  1.337973
   H (  3)  1.085395  2.107266
   H (  4)  1.085230  2.124878  1.854161
   C (  5)  2.441957  1.441519  3.426361  2.714836
   C (  6)  3.663426  2.442606  4.546626  4.044918  1.338172
   H (  7)  4.045466  2.715696  4.747212  4.652866  2.124965  1.085215
   H (  8)  4.546226  3.426847  5.502315  4.746075  2.107449  1.085402
   H (  9)  2.095531  1.087980  2.417897  3.078008  2.175516  2.686120
   H ( 10)  2.685002  2.175385  3.765768  2.503718  1.088009  2.095447
             H (  7)   H (  8)   H (  9)
   H (  8)  1.854233
   H (  9)  2.505255  3.766842
   H ( 10)  3.077922  2.417664  3.121928

 Job number = 2, Threshold = 1.00E-11
Integral type ranges set in mkLRange.C for JobNum: 2  <1-6|1-6>
Symmetry turned off temporarily
 Using the largest function pair in Schwarz integrals
Total number of integrals generated =            3252
Symmetry turned back on
 A cutoff of  1.0D-11 yielded    102 shell pairs
 There are       372 function pairs
 Job number = 11, Threshold = 1.00E-11
Integral type ranges set in mkLRange.C for JobNum: 11  <1-6|7-7>
Total number of integrals generated =            3720
 Smallest overlap matrix eigenvalue = 1.84E-01
 Multipole matrices computed through 2nd order

 Scale SEOQF with 1.000000e-02/1.000000e-01/1.000000e+00

 Standard Electronic Orientation quadrupole field applied
 Nucleus-field energy     =    -0.0000000017 hartrees
 ENuRep (before)= 104.1613346563
 ENucField = -0.0000000017
 ENuRep (after) = 104.1613346546
 Guess from superposition of atomic densities
 Warning:  Energy on first SCF cycle will be non-variational
 SAD guess density has 30.000000 electrons

 ==================================================
    GEN_SCFMAN: A general SCF calculation manager  
                                                   
    Authors:                                       
        -- Eric Jon Sundstrom 2008-2014            
        -- Paul Horn 2010-2015                     
        -- Yuezhi Mao 2012-                        
        -- Dmitri Zuev 2014                        
        -- Alec White 2015-                        
        -- David Stuck 2015                        
        -- Shaama M.S. 2015                        
        -- Shane Yost 2015-                         
        -- Joonho Lee 2016-                        
        -- David Small 2016-                       
        -- Daniel Levine 2016-                     
        -- Susi Lehtola 2017-                      
        -- Hugh Burton 2017-                       
 ==================================================
 Hartree-Fock
Finding J and K together
 Job number = 22, Threshold = 1.00E-11
Integral type ranges set in mkLRange.C for JobNum: 22  <1-6|1-6>
 MakeJK  time:  CPU       0.16 s  wall       0.15 s
 A restricted SCF calculation will be
 performed using DIIS
 SCF converges when DIIS error is below 1.0e-08
 ---------------------------------------
  Cycle       Energy         DIIS error
 ---------------------------------------
Finding J and K together
 Job number = 22, Threshold = 1.00E-11
Integral type ranges set in mkLRange.C for JobNum: 22  <1-6|1-6>
 MakeJK  time:  CPU       0.18 s  wall       0.18 s
    1    -152.6464768863      2.15e-01  
Finding J and K together
 Job number = 22, Threshold = 1.00E-11
Integral type ranges set in mkLRange.C for JobNum: 22  <1-6|1-6>
 MakeJK  time:  CPU       0.20 s  wall       0.20 s
    2    -152.9902610149      1.29e-02  
Finding J and K together
 Job number = 22, Threshold = 1.00E-11
Integral type ranges set in mkLRange.C for JobNum: 22  <1-6|1-6>
 MakeJK  time:  CPU       0.14 s  wall       0.14 s
    3    -153.0143777677      3.50e-03  
Finding J and K together
 Job number = 22, Threshold = 1.00E-11
Integral type ranges set in mkLRange.C for JobNum: 22  <1-6|1-6>
 MakeJK  time:  CPU       0.20 s  wall       0.20 s
    4    -153.0161657079      1.29e-03  
Finding J and K together
 Job number = 22, Threshold = 1.00E-11
Integral type ranges set in mkLRange.C for JobNum: 22  <1-6|1-6>
 MakeJK  time:  CPU       0.15 s  wall       0.15 s
    5    -153.0163381422      9.60e-05  
Finding J and K together
 Job number = 22, Threshold = 1.00E-11
Integral type ranges set in mkLRange.C for JobNum: 22  <1-6|1-6>
 MakeJK  time:  CPU       0.14 s  wall       0.14 s
    6    -153.0163413360      1.29e-05  
Finding J and K together
 Job number = 22, Threshold = 1.00E-11
Integral type ranges set in mkLRange.C for JobNum: 22  <1-6|1-6>
 MakeJK  time:  CPU       0.16 s  wall       0.16 s
    7    -153.0163413963      1.50e-06  
Finding J and K together
 Job number = 22, Threshold = 1.00E-11
Integral type ranges set in mkLRange.C for JobNum: 22  <1-6|1-6>
 MakeJK  time:  CPU       0.16 s  wall       0.16 s
    8    -153.0163413969      1.26e-07  
Finding J and K together
 Job number = 22, Threshold = 1.00E-11
Integral type ranges set in mkLRange.C for JobNum: 22  <1-6|1-6>
 MakeJK  time:  CPU       0.17 s  wall       0.17 s
    9    -153.0163413969      4.20e-08  
Finding J and K together
 Job number = 22, Threshold = 1.00E-11
Integral type ranges set in mkLRange.C for JobNum: 22  <1-6|1-6>
 MakeJK  time:  CPU       0.16 s  wall       0.17 s
   10    -153.0163413969      1.87e-08  
   11    -153.0163413969      3.15e-09  Convergence criterion met
 ---------------------------------------
 SCF time:   CPU 1.83s  wall 2.00s 
 Total energy in the final basis set =     -153.0163413969
Wall  1 = 2
Clock 1 = 1.8306750059
 ==================================================
                  Done GEN_SCFMAN                  
 ==================================================

Symmetry turned off temporarily

 --------------------------------------------------------------

                    Orbital Energies (a.u.)
 --------------------------------------------------------------

 Alpha MOs
 -- Occupied --
-11.030 -11.030 -11.016 -11.016  -1.036  -0.942  -0.772  -0.708
 -0.591  -0.591  -0.499  -0.491  -0.443  -0.398  -0.261
 -- Virtual --
  0.243   0.420   0.593   0.674   0.684   0.697   0.699   0.880
  0.911   1.025   1.077
 --------------------------------------------------------------

          Ground-State Mulliken Net Atomic Charges

     Atom                 Charge (a.u.)
  ----------------------------------------
      1 C                    -0.124625
      2 C                    -0.059627
      3 H                     0.060916
      4 H                     0.060792
      5 C                    -0.059576
      6 C                    -0.124659
      7 H                     0.060766
      8 H                     0.060918
      9 H                     0.062573
     10 H                     0.062522
  ----------------------------------------
  Sum of atomic charges =     0.000000

 -----------------------------------------------------------------
                    Cartesian Multipole Moments
 -----------------------------------------------------------------
    Charge (ESU x 10^10)
                -0.0000
    Dipole Moment (Debye)
         X       0.0038      Y      -0.0009      Z      -0.0076
       Tot       0.0086
    Quadrupole Moments (Debye-Ang)
        XX     -23.0350     XY       0.1465     YY     -22.0916
        XZ       0.8289     YZ      -0.2176     ZZ     -24.7432
    Octopole Moments (Debye-Ang^2)
       XXX    -416.1064    XXY      39.3242    XYY    -133.3968
       YYY     108.1982    XXZ      12.8029    XYZ      -2.6317
       YYZ       3.2120    XZZ    -149.2148    YZZ      40.5919
       ZZZ       8.2944
    Hexadecapole Moments (Debye-Ang^3)
      XXXX   -5278.5859   XXXY     714.9899   XXYY    -923.3386
      XYYY     668.0445   YYYY    -416.4117   XXXZ      88.9538
      XXYZ     -23.5623   XYYZ       3.2058   YYYZ      -5.5217
      XXZZ    -957.5882   XYZZ     250.9972   YYZZ     -90.5612
      XZZZ      -9.4915   YZZZ      -3.1659   ZZZZ     -76.6693
 -----------------------------------------------------------------
drvman_main.C: 73: calling DrvMan  Calculating analytic gradient of the SCF energy
drvman.C : 218: Calculating analytic gradient of the SCF energy
drvman.C: 244: calling SCF_Grad for normal SCF gradient
 Job number = 111, Threshold = 1.00E-11
Integral type ranges set in mkLRange.C for JobNum: 11  <1-6|7-7>
Finding J and K together
 ML is being used
 Job number = 122, Threshold = 1.00E-11
Integral type ranges set in mkLRange.C for JobNum: 22  <1-6|1-6>
Total number of integrals generated =           70470
 MakeJK  time:  CPU       0.47 s  wall       0.54 s
 Gradient of SCF Energy
            1           2           3           4           5           6
    1   0.0214441  -0.0616691   0.0015843  -0.0002401   0.0611905  -0.0211174
    2  -0.0225213   0.0086552   0.0048107  -0.0037544  -0.0084977   0.0224423
    3   0.0105786  -0.0263458   0.0003779  -0.0007617   0.0283564  -0.0122064
            7           8           9          10
    1   0.0009950  -0.0017143   0.0023634  -0.0028364
    2   0.0035687  -0.0047869   0.0039553  -0.0038717
    3  -0.0009408  -0.0001040   0.0012610  -0.0002151
 Max gradient component =       6.167E-02
 RMS gradient           =       1.958E-02
drvman.C: 248: out of SCF_Grad for normal SCF gradient
 Gradient time:  CPU 0.49 s  wall 0.56 s
 ------------------------------------------------------------------------------
                     drvman        : Timing summary (seconds)
 ------------------------------------------------------------------------------
     job step          cpu (% of tot)      sys (% of tot)     wall (% of tot)
 ------------------------------------------------------------------------------
 ------------------------------------------------------------------------------
   Grand Totals     0.4920E+00          0.2000E-05          0.5606E+00
 ------------------------------------------------------------------------------
drvman_main.C: 77: out of DrvMan =======================================================
            AB INITIO MOLECULAR DYNAMICS
=======================================================
Created directory /home/jcartus/scratch/Butadien_11.mol.dir/AIMD
AIMD will take 400 BOMD steps Velocity Verlet integration
Time step = 20.00000 a.u. ( = 0.48378 fs)
Total simulation time requested = 193.511 fs
Integral threshold = 10**(-11)
SCF convergence threshold = 10**(-8)
Generating viewable xyz trajectory,
 file (in Angstroms) at AIMD/View.xyz
Choosing nuclear velocities from Maxwell-Boltzmann
Velocities sampled from Maxwell-Boltzmann at T = 400.0 K
sqrt(kT/m) and (vx,vy,vz) for each atom:
  1   2.4064e-04  -1.69e-04  -1.23e-05  -3.34e-04 
  2   2.4064e-04  -5.35e-05  -6.12e-05  -3.45e-04 
  3   8.3036e-04  -5.47e-04   7.25e-04  -8.91e-05 
  4   8.3036e-04  -6.50e-04   9.29e-04   6.42e-04 
  5   2.4064e-04   7.65e-05  -5.71e-05  -3.36e-04 
  6   2.4064e-04  -1.88e-04   1.05e-04   2.51e-04 
  7   8.3036e-04   5.97e-04   1.19e-03  -5.31e-04 
  8   8.3036e-04   2.34e-04   7.99e-04   6.54e-04 
  9   8.3036e-04  -3.45e-04   2.46e-04   4.59e-05 
 10   8.3036e-04   8.35e-05  -4.07e-04   3.07e-04 
T(nuclear) = 0.01107940 a.u.
v(c.o.m.) = ( -8.5874e-05,   5.9144e-05,  -1.5037e-04)
T(c.o.m.) = 1.64946e-03 a.u.
kT/2 = 0.000633 a.u.
Tx   = 0.001951 a.u.
Ty   = 0.003560 a.u.
Tz   = 0.005569 a.u.
Mean velocities (a.u.):  -9.6141e-05   3.4519e-04   2.6610e-05
Removing c.o.m. velocity
T(nuclear) = 0.01425334 a.u.
v(c.o.m.) = (  9.0151e-21,   0.0000e+00,  -4.0568e-20)
T(c.o.m.) = 8.50742e-35 a.u.
kT   = 0.001267 a.u. = 0.79 kcal/mol
Tx   = 0.002372 a.u. = 1.49 kcal/mol
Ty   = 0.002134 a.u. = 1.34 kcal/mol
Tz   = 0.009748 a.u. = 6.12 kcal/mol
Initial velocities in m/s
  1     -2.8585e+02     -8.5196e+01     -5.8197e+02 
  2     -3.2381e+01     -1.9217e+02     -6.0685e+02 
  3     -1.8836e+02      8.9295e+02      1.5693e+03 
  4     -4.1459e+02      1.3377e+03      3.1697e+03 
  5      2.5203e+02     -1.8321e+02     -5.8633e+02 
  6     -3.2622e+02      1.7127e+02      6.9694e+02 
  7      2.3138e+03      1.8997e+03      6.0333e+02 
  8      1.5193e+03      1.0549e+03      3.1944e+03 
  9      2.5217e+02     -1.5613e+02      1.8645e+03 
 10      1.1901e+03     -1.5844e+03      2.4368e+03 
----------------------------------------------------------------------------
       Nuclear coordinates (Angst) and velocities (a.u.)
----------------------------------------------------------------------------
             x        y        z            v_x         v_y        v_z
----------------------------------------------------------------------------
1      C    7.6578  -2.0177   0.6057    -1.3066e-04  -3.8943e-05  -2.6602e-04
2      C    6.6136  -1.3189   0.1458    -1.4801e-05  -8.7842e-05  -2.7739e-04
3      H    8.5550  -1.5086   0.9431    -8.6099e-05   4.0817e-04   7.1732e-04
4      H    7.6540  -3.1021   0.6485    -1.8951e-04   6.1145e-04   1.4489e-03
5      C    5.3985  -1.9406  -0.3179     1.1520e-04  -8.3748e-05  -2.6801e-04
6      C    4.3964  -1.2521  -0.8768    -1.4911e-04   7.8289e-05   3.1857e-04
7      H    4.4441  -0.1779  -1.0230     1.0577e-03   8.6837e-04   2.7578e-04
8      H    3.4995  -1.7620  -1.2140     6.9447e-04   4.8219e-04   1.4602e-03
9      H    6.6750  -0.2331   0.1156     1.1527e-04  -7.1367e-05   8.5226e-04
10     H    5.3017  -3.0184  -0.2047     5.4400e-04  -7.2421e-04   1.1139e-03
----------------------------------------------------------------------------
Write nuclear velocities every 1 time steps

TIME STEP #1 (t = 0.000 a.u. = 0.00000 fs)
--------------------------------------
 Instantaneous Temperature = 300.1 K
 ----------------------------------------------------------------
             Standard Nuclear Orientation (Angstroms)
    I     Atom           X                Y                Z
 ----------------------------------------------------------------
    1      C       7.6562933766    -2.0180531932     0.6028233879
    2      C       6.6137717215    -1.3198615585     0.1429716597
    3      H       8.5539974990    -1.5045372652     0.9506400496
    4      H       7.6520481369    -3.0954423896     0.6638583158
    5      C       5.3994431901    -1.9414452342    -0.3208337238
    6      C       4.3949140120    -1.2514000022    -0.8733893092
    7      H       4.4551965438    -0.1688651304    -1.0200070466
    8      H       3.5069386700    -1.7566009927    -1.1985703891
    9      H       6.6760437723    -0.2340431694     0.1245373226
   10      H       5.3075708520    -3.0258017166    -0.1928588994
 ----------------------------------------------------------------
 Nuclear Repulsion Energy =   104.2074327594 hartrees
 There are       15 alpha and       15 beta electrons

                       Distance Matrix (Angstroms)
             C (  1)   C (  2)   H (  3)   H (  4)   C (  5)   C (  6)
   C (  2)  1.336333
   H (  3)  1.091122  2.109718
   H (  4)  1.079125  2.121798  1.851144
   C (  5)  2.439751  1.440859  3.429103  2.715798
   C (  6)  3.661087  2.441517  4.548531  4.046300  1.338118
   H (  7)  4.037338  2.708645  4.740004  4.649744  2.126614  1.094081
   H (  8)  4.531062  3.412168  5.491397  4.737412  2.094317  1.072134
   H (  9)  2.091014  1.087759  2.413154  3.071003  2.177909  2.689689
   H ( 10)  2.676783  2.174667  3.763127  2.497076  1.095740  2.108214
             H (  7)   H (  8)   H (  9)
   H (  8)  1.857951
   H (  9)  2.499278  3.756597
   H ( 10)  3.093995  2.421694  3.125280

 Applying Cartesian multipole field
    Component          Value
    ---------          -----
     (2,0,0)        1.00000E-12
     (0,2,0)        2.00000E-11
     (0,0,2)       -3.00000E-10
 Nucleus-field energy     =    -0.0000000016 hartrees
 ENuRep (before)= 104.2074327594
 ENucField = -0.0000000016
 ENuRep (after) = 104.2074327578
 Job number = 2, Threshold = 1.00E-11
Integral type ranges set in mkLRange.C for JobNum: 2  <1-6|1-6>
Symmetry turned off temporarily
Symmetry turned back on
 Job number = 11, Threshold = 1.00E-11
Integral type ranges set in mkLRange.C for JobNum: 11  <1-6|7-7>
 Smallest overlap matrix eigenvalue = 1.83E-01
 Multipole matrices computed through 2nd order
 Guess from superposition of atomic densities
 Warning:  Energy on first SCF cycle will be non-variational
 SAD guess density has 30.000000 electrons
 SCF convergence criterion is 10**(-8)
 A restricted Hartree-Fock SCF calculation will be
 performed using Pulay DIIS extrapolation
 SCF converges when DIIS error is below 1.0E-08
Finding J and K together
 Job number = 22, Threshold = 1.00E-11
Integral type ranges set in mkLRange.C for JobNum: 22  <1-6|1-6>
 MakeJK  time:  CPU       0.15 s  wall       0.16 s
Fock build time:  0.15 s (CPU) 0.16 s (wall)
DIIS Errors:  Max 1.09E+00 RMS 2.15E-01

Current DIIS subspace size = 1
REM_GRID_RESTART_DIIS = 0

 ---------------------------------------
  Cycle       Energy         DIIS Error
 ---------------------------------------
    1    -152.6492298172      2.15E-01  00000
Finding J and K together
 Job number = 22, Threshold = 1.00E-11
Integral type ranges set in mkLRange.C for JobNum: 22  <1-6|1-6>
 MakeJK  time:  CPU       0.19 s  wall       0.20 s
Fock build time:  0.19 s (CPU) 0.20 s (wall)
DIIS Errors:  Max 5.59E-02 RMS 1.29E-02

Current DIIS subspace size = 2
REM_GRID_RESTART_DIIS = 0

    2    -152.9898492316      1.29E-02  00000
Finding J and K together
 Job number = 22, Threshold = 1.00E-11
Integral type ranges set in mkLRange.C for JobNum: 22  <1-6|1-6>
 MakeJK  time:  CPU       0.19 s  wall       0.23 s
Fock build time:  0.19 s (CPU) 0.23 s (wall)
DIIS Errors:  Max 1.72E-02 RMS 3.50E-03

Current DIIS subspace size = 3
REM_GRID_RESTART_DIIS = 0

    3    -153.0139627002      3.50E-03  00000
Finding J and K together
 Job number = 22, Threshold = 1.00E-11
Integral type ranges set in mkLRange.C for JobNum: 22  <1-6|1-6>
 MakeJK  time:  CPU       0.20 s  wall       0.20 s
Fock build time:  0.20 s (CPU) 0.20 s (wall)
DIIS Errors:  Max 6.96E-03 RMS 1.29E-03

Current DIIS subspace size = 4
REM_GRID_RESTART_DIIS = 0

    4    -153.0157492745      1.29E-03  00000
Finding J and K together
 Job number = 22, Threshold = 1.00E-11
Integral type ranges set in mkLRange.C for JobNum: 22  <1-6|1-6>
 MakeJK  time:  CPU       0.20 s  wall       0.21 s
Fock build time:  0.20 s (CPU) 0.21 s (wall)
DIIS Errors:  Max 9.42E-04 RMS 9.60E-05

Current DIIS subspace size = 5
REM_GRID_RESTART_DIIS = 0

    5    -153.0159221634      9.60E-05  00000
Finding J and K together
 Job number = 22, Threshold = 1.00E-11
Integral type ranges set in mkLRange.C for JobNum: 22  <1-6|1-6>
 MakeJK  time:  CPU       0.18 s  wall       0.21 s
Fock build time:  0.18 s (CPU) 0.21 s (wall)
DIIS Errors:  Max 1.26E-04 RMS 1.28E-05

Current DIIS subspace size = 6
REM_GRID_RESTART_DIIS = 0

    6    -153.0159253415      1.28E-05  00000
Finding J and K together
 Job number = 22, Threshold = 1.00E-11
Integral type ranges set in mkLRange.C for JobNum: 22  <1-6|1-6>
 MakeJK  time:  CPU       0.15 s  wall       0.15 s
Fock build time:  0.15 s (CPU) 0.15 s (wall)
DIIS Errors:  Max 8.45E-06 RMS 1.60E-06

Current DIIS subspace size = 7
REM_GRID_RESTART_DIIS = 0

    7    -153.0159254007      1.60E-06  00000
Finding J and K together
 Job number = 22, Threshold = 1.00E-11
Integral type ranges set in mkLRange.C for JobNum: 22  <1-6|1-6>
 MakeJK  time:  CPU       0.18 s  wall       0.20 s
Fock build time:  0.18 s (CPU) 0.20 s (wall)
DIIS Errors:  Max 1.87E-06 RMS 3.00E-07

Current DIIS subspace size = 8
REM_GRID_RESTART_DIIS = 0

    8    -153.0159254013      3.00E-07  00000
Finding J and K together
 Job number = 22, Threshold = 1.00E-11
Integral type ranges set in mkLRange.C for JobNum: 22  <1-6|1-6>
 MakeJK  time:  CPU       0.19 s  wall       0.28 s
Fock build time:  0.19 s (CPU) 0.28 s (wall)
DIIS Errors:  Max 5.29E-07 RMS 1.34E-07

Current DIIS subspace size = 9
REM_GRID_RESTART_DIIS = 0

    9    -153.0159254013      1.34E-07  00000
Finding J and K together
 Job number = 22, Threshold = 1.00E-11
Integral type ranges set in mkLRange.C for JobNum: 22  <1-6|1-6>
 MakeJK  time:  CPU       0.18 s  wall       0.18 s
Fock build time:  0.18 s (CPU) 0.18 s (wall)
DIIS Errors:  Max 1.83E-07 RMS 4.16E-08

Current DIIS subspace size = 10
REM_GRID_RESTART_DIIS = 0

   10    -153.0159254013      4.16E-08  00000
Finding J and K together
 Job number = 22, Threshold = 1.00E-11
Integral type ranges set in mkLRange.C for JobNum: 22  <1-6|1-6>
 MakeJK  time:  CPU       0.16 s  wall       0.16 s
Fock build time:  0.16 s (CPU) 0.16 s (wall)
DIIS Errors:  Max 3.74E-08 RMS 8.55E-09

Current DIIS subspace size = 11
REM_GRID_RESTART_DIIS = 0

   11    -153.0159254013      8.55E-09  00000 Convergence criterion met
 ---------------------------------------
 SCF time:  CPU 1.98 s  wall 2.20 s
 SCF   energy in the final basis set = -153.01592540
 Total energy in the final basis set = -153.01592540
drvman_main.C: 73: calling DrvMan  Calculating analytic gradient of the SCF energy
drvman.C : 218: Calculating analytic gradient of the SCF energy
drvman.C: 244: calling SCF_Grad for normal SCF gradient
 Job number = 111, Threshold = 1.00E-11
Integral type ranges set in mkLRange.C for JobNum: 11  <1-6|7-7>
Finding J and K together
 ML is being used
 Job number = 122, Threshold = 1.00E-11
Integral type ranges set in mkLRange.C for JobNum: 22  <1-6|1-6>
 MakeJK  time:  CPU       0.44 s  wall       0.47 s
 Gradient of SCF Energy
            1           2           3           4           5           6
    1   0.0153898  -0.0612132   0.0057339  -0.0001839   0.0613350  -0.0332305
    2  -0.0293622   0.0073146   0.0070397   0.0020267  -0.0022906   0.0105166
    3   0.0059300  -0.0262800   0.0024397   0.0005578   0.0253058  -0.0150775
            7           8           9          10
    1   0.0027170   0.0090901   0.0025747  -0.0022130
    2   0.0116675  -0.0001328   0.0037773  -0.0105568
    3  -0.0015451   0.0041820   0.0026151   0.0018721
 Max gradient component =       6.133E-02
 RMS gradient           =       1.997E-02
drvman.C: 248: out of SCF_Grad for normal SCF gradient
 Gradient time:  CPU 0.46 s  wall 0.49 s
 ------------------------------------------------------------------------------
                     drvman        : Timing summary (seconds)
 ------------------------------------------------------------------------------
     job step          cpu (% of tot)      sys (% of tot)     wall (% of tot)
 ------------------------------------------------------------------------------
 ------------------------------------------------------------------------------
   Grand Totals     0.4560E+00          0.2000E-05          0.4911E+00
 ------------------------------------------------------------------------------
drvman_main.C: 77: out of DrvMan  Time for this dynamics step: 2.5 s (CPU) 2.7 s (wall)

TIME STEP #2 (t = 20.000 a.u. = 0.48378 fs)
--------------------------------------
 Instantaneous Temperature = 291.5 K
 ----------------------------------------------------------------
             Standard Nuclear Orientation (Angstroms)
    I     Atom           X                Y                Z
 ----------------------------------------------------------------
    1      C       7.6546578332    -2.0180722624     0.5998993935
    2      C       6.6145057741    -1.3209038969     0.1404176182
    3      H       8.5523343605    -1.5013056204     0.9579290099
    4      H       7.6500774639    -3.0889882836     0.6791723583
    5      C       5.3997728702    -1.9422683038    -0.3240523198
    6      C       4.3937595797    -1.2507817684    -0.8698127208
    7      H       4.4660200470    -0.1612245472    -1.0168560728
    8      H       3.5133400103    -1.7512066801    -1.1835926100
    9      H       6.6768308954    -0.2354615424     0.1331833442
   10      H       5.3137466755    -3.0320271206    -0.1812734970
 ----------------------------------------------------------------
 Nuclear Repulsion Energy =   104.2687161097 hartrees
 There are       15 alpha and       15 beta electrons

                       Distance Matrix (Angstroms)
             C (  1)   C (  2)   H (  3)   H (  4)   C (  5)   C (  6)
   C (  2)  1.333823
   H (  3)  1.095927  2.110936
   H (  4)  1.073856  2.118676  1.847298
   C (  5)  2.438020  1.441320  3.431700  2.717590
   C (  6)  3.658175  2.440737  4.549412  4.047464  1.337188
   H (  7)  4.028547  2.701875  4.732183  4.646131  2.126967  1.101807
   H (  8)  4.516921  3.399322  5.480879  4.729921  2.081812  1.060199
   H (  9)  2.086066  1.087254  2.408336  3.063973  2.180168  2.692451
   H ( 10)  2.667996  2.173339  3.758902  2.490392  1.102434  2.119740
             H (  7)   H (  8)   H (  9)
   H (  8)  1.861033
   H (  9)  2.493148  3.746873
   H ( 10)  3.107788  2.426233  3.126925

 Applying Cartesian multipole field
    Component          Value
    ---------          -----
     (2,0,0)        1.00000E-12
     (0,2,0)        2.00000E-11
     (0,0,2)       -3.00000E-10
 Nucleus-field energy     =    -0.0000000015 hartrees
 ENuRep (before)= 104.2687161097
 ENucField = -0.0000000015
 ENuRep (after) = 104.2687161081
 Job number = 2, Threshold = 1.00E-11
Integral type ranges set in mkLRange.C for JobNum: 2  <1-6|1-6>
Symmetry turned off temporarily
Symmetry turned back on
 Job number = 11, Threshold = 1.00E-11
Integral type ranges set in mkLRange.C for JobNum: 11  <1-6|7-7>
 Smallest overlap matrix eigenvalue = 1.83E-01
 Multipole matrices computed through 2nd order
 Guess from superposition of atomic densities
 Warning:  Energy on first SCF cycle will be non-variational
 SAD guess density has 30.000000 electrons
 SCF convergence criterion is 10**(-8)
 A restricted Hartree-Fock SCF calculation will be
 performed using Pulay DIIS extrapolation
 SCF converges when DIIS error is below 1.0E-08
Finding J and K together
 Job number = 22, Threshold = 1.00E-11
Integral type ranges set in mkLRange.C for JobNum: 22  <1-6|1-6>
 MakeJK  time:  CPU       0.14 s  wall       0.15 s
Fock build time:  0.14 s (CPU) 0.15 s (wall)
DIIS Errors:  Max 1.10E+00 RMS 2.16E-01

Current DIIS subspace size = 1
REM_GRID_RESTART_DIIS = 0

 ---------------------------------------
  Cycle       Energy         DIIS Error
 ---------------------------------------
    1    -152.6550708890      2.16E-01  00000
Finding J and K together
 Job number = 22, Threshold = 1.00E-11
Integral type ranges set in mkLRange.C for JobNum: 22  <1-6|1-6>
 MakeJK  time:  CPU       0.19 s  wall       0.19 s
Fock build time:  0.19 s (CPU) 0.20 s (wall)
DIIS Errors:  Max 5.62E-02 RMS 1.29E-02

Current DIIS subspace size = 2
REM_GRID_RESTART_DIIS = 0

    2    -152.9889572382      1.29E-02  00000
Finding J and K together
 Job number = 22, Threshold = 1.00E-11
Integral type ranges set in mkLRange.C for JobNum: 22  <1-6|1-6>
 MakeJK  time:  CPU       0.19 s  wall       0.22 s
Fock build time:  0.19 s (CPU) 0.22 s (wall)
DIIS Errors:  Max 1.71E-02 RMS 3.50E-03

Current DIIS subspace size = 3
REM_GRID_RESTART_DIIS = 0

    3    -153.0130632449      3.50E-03  00000
Finding J and K together
 Job number = 22, Threshold = 1.00E-11
Integral type ranges set in mkLRange.C for JobNum: 22  <1-6|1-6>
 MakeJK  time:  CPU       0.20 s  wall       0.22 s
Fock build time:  0.20 s (CPU) 0.22 s (wall)
DIIS Errors:  Max 6.90E-03 RMS 1.28E-03

Current DIIS subspace size = 4
REM_GRID_RESTART_DIIS = 0

    4    -153.0148460150      1.28E-03  00000
Finding J and K together
 Job number = 22, Threshold = 1.00E-11
Integral type ranges set in mkLRange.C for JobNum: 22  <1-6|1-6>
 MakeJK  time:  CPU       0.19 s  wall       0.21 s
Fock build time:  0.19 s (CPU) 0.21 s (wall)
DIIS Errors:  Max 9.37E-04 RMS 9.55E-05

Current DIIS subspace size = 5
REM_GRID_RESTART_DIIS = 0

    5    -153.0150179888      9.55E-05  00000
Finding J and K together
 Job number = 22, Threshold = 1.00E-11
Integral type ranges set in mkLRange.C for JobNum: 22  <1-6|1-6>
 MakeJK  time:  CPU       0.19 s  wall       0.20 s
Fock build time:  0.19 s (CPU) 0.21 s (wall)
DIIS Errors:  Max 1.25E-04 RMS 1.28E-05

Current DIIS subspace size = 6
REM_GRID_RESTART_DIIS = 0

    6    -153.0150211080      1.28E-05  00000
Finding J and K together
 Job number = 22, Threshold = 1.00E-11
Integral type ranges set in mkLRange.C for JobNum: 22  <1-6|1-6>
 MakeJK  time:  CPU       0.19 s  wall       0.22 s
Fock build time:  0.19 s (CPU) 0.22 s (wall)
DIIS Errors:  Max 8.67E-06 RMS 1.91E-06

Current DIIS subspace size = 7
REM_GRID_RESTART_DIIS = 0

    7    -153.0150211666      1.91E-06  00000
Finding J and K together
 Job number = 22, Threshold = 1.00E-11
Integral type ranges set in mkLRange.C for JobNum: 22  <1-6|1-6>
 MakeJK  time:  CPU       0.20 s  wall       0.21 s
Fock build time:  0.20 s (CPU) 0.22 s (wall)
DIIS Errors:  Max 3.32E-06 RMS 5.23E-07

Current DIIS subspace size = 8
REM_GRID_RESTART_DIIS = 0

    8    -153.0150211672      5.23E-07  00000
Finding J and K together
 Job number = 22, Threshold = 1.00E-11
Integral type ranges set in mkLRange.C for JobNum: 22  <1-6|1-6>
 MakeJK  time:  CPU       0.20 s  wall       0.20 s
Fock build time:  0.20 s (CPU) 0.21 s (wall)
DIIS Errors:  Max 7.99E-07 RMS 1.99E-07

Current DIIS subspace size = 9
REM_GRID_RESTART_DIIS = 0

    9    -153.0150211673      1.99E-07  00000
Finding J and K together
 Job number = 22, Threshold = 1.00E-11
Integral type ranges set in mkLRange.C for JobNum: 22  <1-6|1-6>
 MakeJK  time:  CPU       0.19 s  wall       0.20 s
Fock build time:  0.19 s (CPU) 0.20 s (wall)
DIIS Errors:  Max 2.83E-07 RMS 6.87E-08

Current DIIS subspace size = 10
REM_GRID_RESTART_DIIS = 0

   10    -153.0150211673      6.87E-08  00000
Finding J and K together
 Job number = 22, Threshold = 1.00E-11
Integral type ranges set in mkLRange.C for JobNum: 22  <1-6|1-6>
 MakeJK  time:  CPU       0.20 s  wall       0.21 s
Fock build time:  0.20 s (CPU) 0.21 s (wall)
DIIS Errors:  Max 5.18E-08 RMS 1.19E-08

Current DIIS subspace size = 11
REM_GRID_RESTART_DIIS = 0

   11    -153.0150211673      1.19E-08  00000
Finding J and K together
 Job number = 22, Threshold = 1.00E-11
Integral type ranges set in mkLRange.C for JobNum: 22  <1-6|1-6>
 MakeJK  time:  CPU       0.19 s  wall       0.19 s
Fock build time:  0.19 s (CPU) 0.19 s (wall)
DIIS Errors:  Max 1.02E-08 RMS 2.33E-09

Current DIIS subspace size = 12
REM_GRID_RESTART_DIIS = 0

   12    -153.0150211673      2.33E-09  00000 Convergence criterion met
 ---------------------------------------
 SCF time:  CPU 2.30 s  wall 2.49 s
 SCF   energy in the final basis set = -153.01502117
 Total energy in the final basis set = -153.01502117
drvman_main.C: 73: calling DrvMan  Calculating analytic gradient of the SCF energy
drvman.C : 218: Calculating analytic gradient of the SCF energy
drvman.C: 244: calling SCF_Grad for normal SCF gradient
 Job number = 111, Threshold = 1.00E-11
Integral type ranges set in mkLRange.C for JobNum: 11  <1-6|7-7>
Finding J and K together
 ML is being used
 Job number = 122, Threshold = 1.00E-11
Integral type ranges set in mkLRange.C for JobNum: 22  <1-6|1-6>
 MakeJK  time:  CPU       0.50 s  wall       0.53 s
 Gradient of SCF Energy
            1           2           3           4           5           6
    1   0.0091432  -0.0588466   0.0090916  -0.0000568   0.0595203  -0.0440236
    2  -0.0344499   0.0058521   0.0087392   0.0072232   0.0031471  -0.0005634
    3   0.0011732  -0.0253733   0.0042888   0.0017840   0.0214331  -0.0172885
            7           8           9          10
    1   0.0044039   0.0194685   0.0026458  -0.0013462
    2   0.0184330   0.0043844   0.0033048  -0.0160704
    3  -0.0020173   0.0081148   0.0039058   0.0039794
 Max gradient component =       5.952E-02
 RMS gradient           =       2.084E-02
drvman.C: 248: out of SCF_Grad for normal SCF gradient
 Gradient time:  CPU 0.52 s  wall 0.56 s
 ------------------------------------------------------------------------------
                     drvman        : Timing summary (seconds)
 ------------------------------------------------------------------------------
     job step          cpu (% of tot)      sys (% of tot)     wall (% of tot)
 ------------------------------------------------------------------------------
 ------------------------------------------------------------------------------
   Grand Totals     0.5200E+00          0.2000E-05          0.5558E+00
 ------------------------------------------------------------------------------
drvman_main.C: 77: out of DrvMan  Time for this dynamics step: 2.8 s (CPU) 3.1 s (wall)

TIME STEP #3 (t = 40.000 a.u. = 0.96755 fs)
--------------------------------------
 Instantaneous Temperature = 272.9 K
 ----------------------------------------------------------------
             Standard Nuclear Orientation (Angstroms)
    I     Atom           X                Y                Z
 ----------------------------------------------------------------
    1      C       7.6529338155    -2.0177579756     0.5969640465
    2      C       6.6158092583    -1.3220028632     0.1381091024
    3      H       8.5496237193    -1.4990808723     0.9647238290
    4      H       7.6481133311    -3.0833664093     0.6942808529
    5      C       5.3995266005    -1.9431218267    -0.3274783138
    6      C       4.3930311433    -1.2501580829    -0.8660688395
    7      H       4.4763361519    -0.1557077430    -1.0134726735
    8      H       3.5174982661    -1.7463175183    -1.1695497924
    9      H       6.6773131746    -0.2372606803     0.1413793559
   10      H       5.3200776066    -3.0364009513    -0.1701465829
 ----------------------------------------------------------------
 Nuclear Repulsion Energy =   104.3434727663 hartrees
 There are       15 alpha and       15 beta electrons

                       Distance Matrix (Angstroms)
             C (  1)   C (  2)   H (  3)   H (  4)   C (  5)   C (  6)
   C (  2)  1.330508
   H (  3)  1.099239  2.110518
   H (  4)  1.070054  2.115982  1.842775
   C (  5)  2.436803  1.442880  3.433667  2.720348
   C (  6)  3.654674  2.440139  4.548739  4.048568  1.335407
   H (  7)  4.018894  2.695131  4.723302  4.641958  2.125492  1.107470
   H (  8)  4.505117  3.389623  5.471612  4.724780  2.071195  1.051110
   H (  9)  2.080760  1.086489  2.403255  3.057527  2.182322  2.694227
   H ( 10)  2.658629  2.170968  3.752499  2.483786  1.107395  2.129410
             H (  7)   H (  8)   H (  9)
   H (  8)  1.863805
   H (  9)  2.486892  3.739013
   H ( 10)  3.117931  2.431546  3.126391

 Applying Cartesian multipole field
    Component          Value
    ---------          -----
     (2,0,0)        1.00000E-12
     (0,2,0)        2.00000E-11
     (0,0,2)       -3.00000E-10
 Nucleus-field energy     =    -0.0000000015 hartrees
 ENuRep (before)= 104.3434727663
 ENucField = -0.0000000015
 ENuRep (after) = 104.3434727648
 Job number = 2, Threshold = 1.00E-11
Integral type ranges set in mkLRange.C for JobNum: 2  <1-6|1-6>
Symmetry turned off temporarily
Symmetry turned back on
 Job number = 11, Threshold = 1.00E-11
Integral type ranges set in mkLRange.C for JobNum: 11  <1-6|7-7>
 Smallest overlap matrix eigenvalue = 1.82E-01
 Multipole matrices computed through 2nd order
 Guess from superposition of atomic densities
 Warning:  Energy on first SCF cycle will be non-variational
 SAD guess density has 30.000000 electrons
 SCF convergence criterion is 10**(-8)
 A restricted Hartree-Fock SCF calculation will be
 performed using Pulay DIIS extrapolation
 SCF converges when DIIS error is below 1.0E-08
Finding J and K together
 Job number = 22, Threshold = 1.00E-11
Integral type ranges set in mkLRange.C for JobNum: 22  <1-6|1-6>
 MakeJK  time:  CPU       0.15 s  wall       0.15 s
Fock build time:  0.15 s (CPU) 0.15 s (wall)
DIIS Errors:  Max 1.11E+00 RMS 2.16E-01

Current DIIS subspace size = 1
REM_GRID_RESTART_DIIS = 0

 ---------------------------------------
  Cycle       Energy         DIIS Error
 ---------------------------------------
    1    -152.6636535348      2.16E-01  00000
Finding J and K together
 Job number = 22, Threshold = 1.00E-11
Integral type ranges set in mkLRange.C for JobNum: 22  <1-6|1-6>
 MakeJK  time:  CPU       0.20 s  wall       0.23 s
Fock build time:  0.20 s (CPU) 0.23 s (wall)
DIIS Errors:  Max 5.66E-02 RMS 1.29E-02

Current DIIS subspace size = 2
REM_GRID_RESTART_DIIS = 0

    2    -152.9879610296      1.29E-02  00000
Finding J and K together
 Job number = 22, Threshold = 1.00E-11
Integral type ranges set in mkLRange.C for JobNum: 22  <1-6|1-6>
 MakeJK  time:  CPU       0.20 s  wall       0.22 s
Fock build time:  0.20 s (CPU) 0.22 s (wall)
DIIS Errors:  Max 1.70E-02 RMS 3.49E-03

Current DIIS subspace size = 3
REM_GRID_RESTART_DIIS = 0

    3    -153.0120505467      3.49E-03  00000
Finding J and K together
 Job number = 22, Threshold = 1.00E-11
Integral type ranges set in mkLRange.C for JobNum: 22  <1-6|1-6>
 MakeJK  time:  CPU       0.20 s  wall       0.22 s
Fock build time:  0.20 s (CPU) 0.22 s (wall)
DIIS Errors:  Max 6.83E-03 RMS 1.27E-03

Current DIIS subspace size = 4
REM_GRID_RESTART_DIIS = 0

    4    -153.0138268279      1.27E-03  00000
Finding J and K together
 Job number = 22, Threshold = 1.00E-11
Integral type ranges set in mkLRange.C for JobNum: 22  <1-6|1-6>
 MakeJK  time:  CPU       0.19 s  wall       0.20 s
Fock build time:  0.19 s (CPU) 0.20 s (wall)
DIIS Errors:  Max 9.26E-04 RMS 9.45E-05

Current DIIS subspace size = 5
REM_GRID_RESTART_DIIS = 0

    5    -153.0139958584      9.45E-05  00000
Finding J and K together
 Job number = 22, Threshold = 1.00E-11
Integral type ranges set in mkLRange.C for JobNum: 22  <1-6|1-6>
 MakeJK  time:  CPU       0.19 s  wall       0.21 s
Fock build time:  0.19 s (CPU) 0.21 s (wall)
DIIS Errors:  Max 1.25E-04 RMS 1.28E-05

Current DIIS subspace size = 6
REM_GRID_RESTART_DIIS = 0

    6    -153.0139988781      1.28E-05  00000
Finding J and K together
 Job number = 22, Threshold = 1.00E-11
Integral type ranges set in mkLRange.C for JobNum: 22  <1-6|1-6>
 MakeJK  time:  CPU       0.20 s  wall       0.23 s
Fock build time:  0.20 s (CPU) 0.23 s (wall)
DIIS Errors:  Max 9.56E-06 RMS 2.41E-06

Current DIIS subspace size = 7
REM_GRID_RESTART_DIIS = 0

    7    -153.0139989365      2.41E-06  00000
Finding J and K together
 Job number = 22, Threshold = 1.00E-11
Integral type ranges set in mkLRange.C for JobNum: 22  <1-6|1-6>
 MakeJK  time:  CPU       0.20 s  wall       0.31 s
Fock build time:  0.20 s (CPU) 0.31 s (wall)
DIIS Errors:  Max 4.65E-06 RMS 6.93E-07

Current DIIS subspace size = 8
REM_GRID_RESTART_DIIS = 0

    8    -153.0139989374      6.93E-07  00000
Finding J and K together
 Job number = 22, Threshold = 1.00E-11
Integral type ranges set in mkLRange.C for JobNum: 22  <1-6|1-6>
 MakeJK  time:  CPU       0.20 s  wall       0.26 s
Fock build time:  0.20 s (CPU) 0.26 s (wall)
DIIS Errors:  Max 1.09E-06 RMS 2.54E-07

Current DIIS subspace size = 9
REM_GRID_RESTART_DIIS = 0

    9    -153.0139989375      2.54E-07  00000
Finding J and K together
 Job number = 22, Threshold = 1.00E-11
Integral type ranges set in mkLRange.C for JobNum: 22  <1-6|1-6>
 MakeJK  time:  CPU       0.20 s  wall       0.25 s
Fock build time:  0.20 s (CPU) 0.25 s (wall)
DIIS Errors:  Max 3.83E-07 RMS 8.94E-08

Current DIIS subspace size = 10
REM_GRID_RESTART_DIIS = 0

   10    -153.0139989375      8.94E-08  00000
Finding J and K together
 Job number = 22, Threshold = 1.00E-11
Integral type ranges set in mkLRange.C for JobNum: 22  <1-6|1-6>
 MakeJK  time:  CPU       0.20 s  wall       0.21 s
Fock build time:  0.20 s (CPU) 0.21 s (wall)
DIIS Errors:  Max 5.77E-08 RMS 1.27E-08

Current DIIS subspace size = 11
REM_GRID_RESTART_DIIS = 0

   11    -153.0139989375      1.27E-08  00000
Finding J and K together
 Job number = 22, Threshold = 1.00E-11
Integral type ranges set in mkLRange.C for JobNum: 22  <1-6|1-6>
 MakeJK  time:  CPU       0.20 s  wall       0.23 s
Fock build time:  0.20 s (CPU) 0.23 s (wall)
DIIS Errors:  Max 1.13E-08 RMS 2.61E-09

Current DIIS subspace size = 12
REM_GRID_RESTART_DIIS = 0

   12    -153.0139989375      2.61E-09  00000 Convergence criterion met
 ---------------------------------------
 SCF time:  CPU 2.32 s  wall 2.79 s
 SCF   energy in the final basis set = -153.01399894
 Total energy in the final basis set = -153.01399894
drvman_main.C: 73: calling DrvMan  Calculating analytic gradient of the SCF energy
drvman.C : 218: Calculating analytic gradient of the SCF energy
drvman.C: 244: calling SCF_Grad for normal SCF gradient
 Job number = 111, Threshold = 1.00E-11
Integral type ranges set in mkLRange.C for JobNum: 11  <1-6|7-7>
Finding J and K together
 ML is being used
 Job number = 122, Threshold = 1.00E-11
Integral type ranges set in mkLRange.C for JobNum: 22  <1-6|1-6>
 MakeJK  time:  CPU       0.52 s  wall       0.56 s
 Gradient of SCF Energy
            1           2           3           4           5           6
    1   0.0030990  -0.0546225   0.0113126   0.0001236   0.0557616  -0.0518414
    2  -0.0369243   0.0042733   0.0097125   0.0111506   0.0073530  -0.0093101
    3  -0.0035796  -0.0236321   0.0057580   0.0029877   0.0168895  -0.0183987
            7           8           9          10
    1   0.0059353   0.0278807   0.0025838  -0.0002328
    2   0.0232252   0.0079120   0.0025616  -0.0199539
    3  -0.0022856   0.0111626   0.0051132   0.0059850
 Max gradient component =       5.576E-02
 RMS gradient           =       2.154E-02
drvman.C: 248: out of SCF_Grad for normal SCF gradient
 Gradient time:  CPU 0.54 s  wall 0.59 s
 ------------------------------------------------------------------------------
                     drvman        : Timing summary (seconds)
 ------------------------------------------------------------------------------
     job step          cpu (% of tot)      sys (% of tot)     wall (% of tot)
 ------------------------------------------------------------------------------
 ------------------------------------------------------------------------------
   Grand Totals     0.5360E+00          0.3000E-05          0.5870E+00
 ------------------------------------------------------------------------------
drvman_main.C: 77: out of DrvMan  Time for this dynamics step: 2.9 s (CPU) 3.4 s (wall)

TIME STEP #4 (t = 60.000 a.u. = 1.45133 fs)
--------------------------------------
 Instantaneous Temperature = 252.0 K
 ----------------------------------------------------------------
             Standard Nuclear Orientation (Angstroms)
    I     Atom           X                Y                Z
 ----------------------------------------------------------------
    1      C       7.6511798101    -2.0170863899     0.5940633376
    2      C       6.6176412988    -1.3231431800     0.1360292634
    3      H       8.5456096877    -1.4979751653     0.9708552312
    4      H       7.6461349537    -3.0790292644     0.7090451196
    5      C       5.3987407518    -1.9440465014    -0.3310677393
    6      C       4.3928043519    -1.2494443084    -0.8621469228
    7      H       4.4859684112    -0.1528668646    -1.0098259363
    8      H       3.5184442117    -1.7423399468    -1.1567930873
    9      H       6.6774977583    -0.2393549552     0.1489862400
   10      H       5.3264353545    -3.0384757660    -0.1597092361
 ----------------------------------------------------------------
 Nuclear Repulsion Energy =   104.4290100619 hartrees
 There are       15 alpha and       15 beta electrons

                       Distance Matrix (Angstroms)
             C (  1)   C (  2)   H (  3)   H (  4)   C (  5)   C (  6)
   C (  2)  1.326482
   H (  3)  1.100660  2.108213
   H (  4)  1.068161  2.114068  1.837752
   C (  5)  2.436121  1.445482  3.434642  2.724115
   C (  6)  3.650594  2.439608  4.546147  4.049714  1.332826
   H (  7)  4.008284  2.688226  4.713078  4.637197  2.121837  1.110392
   H (  8)  4.496720  3.384101  5.464338  4.722915  2.063498  1.046073
   H (  9)  2.075206  1.085517  2.397798  3.052159  2.184409  2.694902
   H ( 10)  2.648744  2.167266  3.743581  2.477375  1.110120  2.136754
             H (  7)   H (  8)   H (  9)
   H (  8)  1.866582
   H (  9)  2.480550  3.734119
   H ( 10)  3.123431  2.437822  3.123418

 Applying Cartesian multipole field
    Component          Value
    ---------          -----
     (2,0,0)        1.00000E-12
     (0,2,0)        2.00000E-11
     (0,0,2)       -3.00000E-10
 Nucleus-field energy     =    -0.0000000014 hartrees
 ENuRep (before)= 104.4290100619
 ENucField = -0.0000000014
 ENuRep (after) = 104.4290100605
 Job number = 2, Threshold = 1.00E-11
Integral type ranges set in mkLRange.C for JobNum: 2  <1-6|1-6>
Symmetry turned off temporarily
Symmetry turned back on
 Job number = 11, Threshold = 1.00E-11
Integral type ranges set in mkLRange.C for JobNum: 11  <1-6|7-7>
 Smallest overlap matrix eigenvalue = 1.81E-01
 Multipole matrices computed through 2nd order
 Guess from superposition of atomic densities
 Warning:  Energy on first SCF cycle will be non-variational
 SAD guess density has 30.000000 electrons
 SCF convergence criterion is 10**(-8)
 A restricted Hartree-Fock SCF calculation will be
 performed using Pulay DIIS extrapolation
 SCF converges when DIIS error is below 1.0E-08
Finding J and K together
 Job number = 22, Threshold = 1.00E-11
Integral type ranges set in mkLRange.C for JobNum: 22  <1-6|1-6>
 MakeJK  time:  CPU       0.15 s  wall       0.19 s
Fock build time:  0.15 s (CPU) 0.19 s (wall)
DIIS Errors:  Max 1.12E+00 RMS 2.17E-01

Current DIIS subspace size = 1
REM_GRID_RESTART_DIIS = 0

 ---------------------------------------
  Cycle       Energy         DIIS Error
 ---------------------------------------
    1    -152.6744565044      2.17E-01  00000
Finding J and K together
 Job number = 22, Threshold = 1.00E-11
Integral type ranges set in mkLRange.C for JobNum: 22  <1-6|1-6>
 MakeJK  time:  CPU       0.19 s  wall       0.26 s
Fock build time:  0.19 s (CPU) 0.26 s (wall)
DIIS Errors:  Max 5.70E-02 RMS 1.29E-02

Current DIIS subspace size = 2
REM_GRID_RESTART_DIIS = 0

    2    -152.9872922914      1.29E-02  00000
Finding J and K together
 Job number = 22, Threshold = 1.00E-11
Integral type ranges set in mkLRange.C for JobNum: 22  <1-6|1-6>
 MakeJK  time:  CPU       0.19 s  wall       0.21 s
Fock build time:  0.19 s (CPU) 0.21 s (wall)
DIIS Errors:  Max 1.70E-02 RMS 3.49E-03

Current DIIS subspace size = 3
REM_GRID_RESTART_DIIS = 0

    3    -153.0113520406      3.49E-03  00000
Finding J and K together
 Job number = 22, Threshold = 1.00E-11
Integral type ranges set in mkLRange.C for JobNum: 22  <1-6|1-6>
 MakeJK  time:  CPU       0.19 s  wall       0.19 s
Fock build time:  0.19 s (CPU) 0.19 s (wall)
DIIS Errors:  Max 6.76E-03 RMS 1.25E-03

Current DIIS subspace size = 4
REM_GRID_RESTART_DIIS = 0

    4    -153.0131190567      1.25E-03  00000
Finding J and K together
 Job number = 22, Threshold = 1.00E-11
Integral type ranges set in mkLRange.C for JobNum: 22  <1-6|1-6>
 MakeJK  time:  CPU       0.14 s  wall       0.14 s
Fock build time:  0.14 s (CPU) 0.14 s (wall)
DIIS Errors:  Max 9.09E-04 RMS 9.31E-05

Current DIIS subspace size = 5
REM_GRID_RESTART_DIIS = 0

    5    -153.0132826412      9.31E-05  00000
Finding J and K together
 Job number = 22, Threshold = 1.00E-11
Integral type ranges set in mkLRange.C for JobNum: 22  <1-6|1-6>
 MakeJK  time:  CPU       0.15 s  wall       0.15 s
Fock build time:  0.15 s (CPU) 0.15 s (wall)
DIIS Errors:  Max 1.25E-04 RMS 1.30E-05

Current DIIS subspace size = 6
REM_GRID_RESTART_DIIS = 0

    6    -153.0132855260      1.30E-05  00000
Finding J and K together
 Job number = 22, Threshold = 1.00E-11
Integral type ranges set in mkLRange.C for JobNum: 22  <1-6|1-6>
 MakeJK  time:  CPU       0.16 s  wall       0.16 s
Fock build time:  0.16 s (CPU) 0.16 s (wall)
DIIS Errors:  Max 1.18E-05 RMS 3.03E-06

Current DIIS subspace size = 7
REM_GRID_RESTART_DIIS = 0

    7    -153.0132855844      3.03E-06  00000
Finding J and K together
 Job number = 22, Threshold = 1.00E-11
Integral type ranges set in mkLRange.C for JobNum: 22  <1-6|1-6>
 MakeJK  time:  CPU       0.14 s  wall       0.15 s
Fock build time:  0.14 s (CPU) 0.15 s (wall)
DIIS Errors:  Max 5.47E-06 RMS 7.90E-07

Current DIIS subspace size = 8
REM_GRID_RESTART_DIIS = 0

    8    -153.0132855857      7.90E-07  00000
Finding J and K together
 Job number = 22, Threshold = 1.00E-11
Integral type ranges set in mkLRange.C for JobNum: 22  <1-6|1-6>
 MakeJK  time:  CPU       0.16 s  wall       0.17 s
Fock build time:  0.16 s (CPU) 0.17 s (wall)
DIIS Errors:  Max 1.29E-06 RMS 2.91E-07

Current DIIS subspace size = 9
REM_GRID_RESTART_DIIS = 0

    9    -153.0132855858      2.91E-07  00000
Finding J and K together
 Job number = 22, Threshold = 1.00E-11
Integral type ranges set in mkLRange.C for JobNum: 22  <1-6|1-6>
 MakeJK  time:  CPU       0.19 s  wall       0.19 s
Fock build time:  0.19 s (CPU) 0.19 s (wall)
DIIS Errors:  Max 4.38E-07 RMS 1.03E-07

Current DIIS subspace size = 10
REM_GRID_RESTART_DIIS = 0

   10    -153.0132855858      1.03E-07  00000
Finding J and K together
 Job number = 22, Threshold = 1.00E-11
Integral type ranges set in mkLRange.C for JobNum: 22  <1-6|1-6>
 MakeJK  time:  CPU       0.19 s  wall       0.19 s
Fock build time:  0.19 s (CPU) 0.19 s (wall)
DIIS Errors:  Max 6.41E-08 RMS 1.27E-08

Current DIIS subspace size = 11
REM_GRID_RESTART_DIIS = 0

   11    -153.0132855858      1.27E-08  00000
Finding J and K together
 Job number = 22, Threshold = 1.00E-11
Integral type ranges set in mkLRange.C for JobNum: 22  <1-6|1-6>
 MakeJK  time:  CPU       0.18 s  wall       0.19 s
Fock build time:  0.18 s (CPU) 0.19 s (wall)
DIIS Errors:  Max 1.21E-08 RMS 2.92E-09

Current DIIS subspace size = 12
REM_GRID_RESTART_DIIS = 0

   12    -153.0132855858      2.92E-09  00000 Convergence criterion met
 ---------------------------------------
 SCF time:  CPU 2.07 s  wall 2.22 s
 SCF   energy in the final basis set = -153.01328559
 Total energy in the final basis set = -153.01328559
drvman_main.C: 73: calling DrvMan  Calculating analytic gradient of the SCF energy
drvman.C : 218: Calculating analytic gradient of the SCF energy
drvman.C: 244: calling SCF_Grad for normal SCF gradient
 Job number = 111, Threshold = 1.00E-11
Integral type ranges set in mkLRange.C for JobNum: 11  <1-6|7-7>
Finding J and K together
 ML is being used
 Job number = 122, Threshold = 1.00E-11
Integral type ranges set in mkLRange.C for JobNum: 22  <1-6|1-6>
 MakeJK  time:  CPU       0.41 s  wall       0.46 s
 Gradient of SCF Energy
            1           2           3           4           5           6
    1  -0.0024549  -0.0486627   0.0121827   0.0003380   0.0501627  -0.0551319
    2  -0.0361866   0.0025558   0.0098436   0.0132892   0.0100536  -0.0145288
    3  -0.0082700  -0.0210941   0.0067193   0.0042647   0.0118456  -0.0180321
            7           8           9          10
    1   0.0071992   0.0328638   0.0024016   0.0011014
    2   0.0256431   0.0096558   0.0015990  -0.0219248
    3  -0.0023063   0.0128796   0.0062205   0.0077728
 Max gradient component =       5.513E-02
 RMS gradient           =       2.134E-02
drvman.C: 248: out of SCF_Grad for normal SCF gradient
 Gradient time:  CPU 0.43 s  wall 0.50 s
 ------------------------------------------------------------------------------
                     drvman        : Timing summary (seconds)
 ------------------------------------------------------------------------------
     job step          cpu (% of tot)      sys (% of tot)     wall (% of tot)
 ------------------------------------------------------------------------------
 ------------------------------------------------------------------------------
   Grand Totals     0.4280E+00          0.1000E-05          0.4972E+00
 ------------------------------------------------------------------------------
drvman_main.C: 77: out of DrvMan  Time for this dynamics step: 2.5 s (CPU) 2.8 s (wall)

TIME STEP #5 (t = 80.000 a.u. = 1.93511 fs)
--------------------------------------
 Instantaneous Temperature = 237.4 K
 ----------------------------------------------------------------
             Standard Nuclear Orientation (Angstroms)
    I     Atom           X                Y                Z
 ----------------------------------------------------------------
    1      C       7.6494495591    -2.0160646438     0.5912426533
    2      C       6.6199442258    -1.3243082276     0.1341535425
    3      H       8.5401920071    -1.4980036050     0.9762124630
    4      H       7.6441176278    -3.0762232505     0.7233180220
    5      C       5.3974695023    -1.9450684603    -0.3347717888
    6      C       4.3931110462    -1.2485899450    -0.8580505179
    7      H       4.4947712005    -0.1529804917    -1.0059134710
    8      H       3.5156037086    -1.7394748797    -1.1455203251
    9      H       6.6774056441    -0.2416334629     0.1558764193
   10      H       5.3326662053    -3.0380244930    -0.1501674453
 ----------------------------------------------------------------
 Nuclear Repulsion Energy =   104.5227518021 hartrees
 There are       15 alpha and       15 beta electrons

                       Distance Matrix (Angstroms)
             C (  1)   C (  2)   H (  3)   H (  4)   C (  5)   C (  6)
   C (  2)  1.321869
   H (  3)  1.100005  2.103945
   H (  4)  1.068367  2.113114  1.832398
   C (  5)  2.435972  1.449027  3.434422  2.728826
   C (  6)  3.645985  2.439055  4.541476  4.050928  1.329526
   H (  7)  3.996747  2.681067  4.701419  4.631843  2.115863  1.110206
   H (  8)  4.492386  3.383321  5.459537  4.724837  2.059369  1.045766
   H (  9)  2.069546  1.084416  2.391943  3.048183  2.186473  2.694441
   H ( 10)  2.638480  2.162116  3.732106  2.471284  1.110329  2.141480
             H (  7)   H (  8)   H (  9)
   H (  8)  1.869552
   H (  9)  2.474168  3.732848
   H ( 10)  3.123755  2.445133  3.117978

 Applying Cartesian multipole field
    Component          Value
    ---------          -----
     (2,0,0)        1.00000E-12
     (0,2,0)        2.00000E-11
     (0,0,2)       -3.00000E-10
 Nucleus-field energy     =    -0.0000000014 hartrees
 ENuRep (before)= 104.5227518021
 ENucField = -0.0000000014
 ENuRep (after) = 104.5227518007
 Job number = 2, Threshold = 1.00E-11
Integral type ranges set in mkLRange.C for JobNum: 2  <1-6|1-6>
Symmetry turned off temporarily
Symmetry turned back on
 Job number = 11, Threshold = 1.00E-11
Integral type ranges set in mkLRange.C for JobNum: 11  <1-6|7-7>
 Smallest overlap matrix eigenvalue = 1.80E-01
 Multipole matrices computed through 2nd order
 Guess from superposition of atomic densities
 Warning:  Energy on first SCF cycle will be non-variational
 SAD guess density has 30.000000 electrons
 SCF convergence criterion is 10**(-8)
 A restricted Hartree-Fock SCF calculation will be
 performed using Pulay DIIS extrapolation
 SCF converges when DIIS error is below 1.0E-08
Finding J and K together
 Job number = 22, Threshold = 1.00E-11
Integral type ranges set in mkLRange.C for JobNum: 22  <1-6|1-6>
 MakeJK  time:  CPU       0.14 s  wall       0.14 s
Fock build time:  0.14 s (CPU) 0.14 s (wall)
DIIS Errors:  Max 1.13E+00 RMS 2.18E-01

Current DIIS subspace size = 1
REM_GRID_RESTART_DIIS = 0

 ---------------------------------------
  Cycle       Energy         DIIS Error
 ---------------------------------------
    1    -152.6870203338      2.18E-01  00000
Finding J and K together
 Job number = 22, Threshold = 1.00E-11
Integral type ranges set in mkLRange.C for JobNum: 22  <1-6|1-6>
 MakeJK  time:  CPU       0.16 s  wall       0.16 s
Fock build time:  0.16 s (CPU) 0.16 s (wall)
DIIS Errors:  Max 5.74E-02 RMS 1.29E-02

Current DIIS subspace size = 2
REM_GRID_RESTART_DIIS = 0

    2    -152.9872195016      1.29E-02  00000
Finding J and K together
 Job number = 22, Threshold = 1.00E-11
Integral type ranges set in mkLRange.C for JobNum: 22  <1-6|1-6>
 MakeJK  time:  CPU       0.18 s  wall       0.18 s
Fock build time:  0.18 s (CPU) 0.18 s (wall)
DIIS Errors:  Max 1.69E-02 RMS 3.47E-03

Current DIIS subspace size = 3
REM_GRID_RESTART_DIIS = 0

    3    -153.0112346893      3.47E-03  00000
Finding J and K together
 Job number = 22, Threshold = 1.00E-11
Integral type ranges set in mkLRange.C for JobNum: 22  <1-6|1-6>
 MakeJK  time:  CPU       0.19 s  wall       0.19 s
Fock build time:  0.19 s (CPU) 0.19 s (wall)
DIIS Errors:  Max 6.69E-03 RMS 1.23E-03

Current DIIS subspace size = 4
REM_GRID_RESTART_DIIS = 0

    4    -153.0129898857      1.23E-03  00000
Finding J and K together
 Job number = 22, Threshold = 1.00E-11
Integral type ranges set in mkLRange.C for JobNum: 22  <1-6|1-6>
 MakeJK  time:  CPU       0.20 s  wall       0.20 s
Fock build time:  0.20 s (CPU) 0.20 s (wall)
DIIS Errors:  Max 8.87E-04 RMS 9.12E-05

Current DIIS subspace size = 5
REM_GRID_RESTART_DIIS = 0

    5    -153.0131455086      9.12E-05  00000
Finding J and K together
 Job number = 22, Threshold = 1.00E-11
Integral type ranges set in mkLRange.C for JobNum: 22  <1-6|1-6>
 MakeJK  time:  CPU       0.20 s  wall       0.20 s
Fock build time:  0.20 s (CPU) 0.20 s (wall)
DIIS Errors:  Max 1.25E-04 RMS 1.34E-05

Current DIIS subspace size = 6
REM_GRID_RESTART_DIIS = 0

    6    -153.0131482304      1.34E-05  00000
Finding J and K together
 Job number = 22, Threshold = 1.00E-11
Integral type ranges set in mkLRange.C for JobNum: 22  <1-6|1-6>
 MakeJK  time:  CPU       0.19 s  wall       0.19 s
Fock build time:  0.19 s (CPU) 0.19 s (wall)
DIIS Errors:  Max 1.45E-05 RMS 3.68E-06

Current DIIS subspace size = 7
REM_GRID_RESTART_DIIS = 0

    7    -153.0131482891      3.68E-06  00000
Finding J and K together
 Job number = 22, Threshold = 1.00E-11
Integral type ranges set in mkLRange.C for JobNum: 22  <1-6|1-6>
 MakeJK  time:  CPU       0.20 s  wall       0.20 s
Fock build time:  0.20 s (CPU) 0.20 s (wall)
DIIS Errors:  Max 5.73E-06 RMS 8.44E-07

Current DIIS subspace size = 8
REM_GRID_RESTART_DIIS = 0

    8    -153.0131482909      8.44E-07  00000
Finding J and K together
 Job number = 22, Threshold = 1.00E-11
Integral type ranges set in mkLRange.C for JobNum: 22  <1-6|1-6>
 MakeJK  time:  CPU       0.19 s  wall       0.19 s
Fock build time:  0.19 s (CPU) 0.19 s (wall)
DIIS Errors:  Max 1.36E-06 RMS 3.09E-07

Current DIIS subspace size = 9
REM_GRID_RESTART_DIIS = 0

    9    -153.0131482911      3.09E-07  00000
Finding J and K together
 Job number = 22, Threshold = 1.00E-11
Integral type ranges set in mkLRange.C for JobNum: 22  <1-6|1-6>
 MakeJK  time:  CPU       0.20 s  wall       0.19 s
Fock build time:  0.20 s (CPU) 0.19 s (wall)
DIIS Errors:  Max 4.81E-07 RMS 1.09E-07

Current DIIS subspace size = 10
REM_GRID_RESTART_DIIS = 0

   10    -153.0131482911      1.09E-07  00000
Finding J and K together
 Job number = 22, Threshold = 1.00E-11
Integral type ranges set in mkLRange.C for JobNum: 22  <1-6|1-6>
 MakeJK  time:  CPU       0.20 s  wall       0.20 s
Fock build time:  0.20 s (CPU) 0.20 s (wall)
DIIS Errors:  Max 6.99E-08 RMS 1.27E-08

Current DIIS subspace size = 11
REM_GRID_RESTART_DIIS = 0

   11    -153.0131482911      1.27E-08  00000
Finding J and K together
 Job number = 22, Threshold = 1.00E-11
Integral type ranges set in mkLRange.C for JobNum: 22  <1-6|1-6>
 MakeJK  time:  CPU       0.20 s  wall       0.20 s
Fock build time:  0.20 s (CPU) 0.20 s (wall)
DIIS Errors:  Max 1.29E-08 RMS 3.21E-09

Current DIIS subspace size = 12
REM_GRID_RESTART_DIIS = 0

   12    -153.0131482911      3.21E-09  00000 Convergence criterion met
 ---------------------------------------
 SCF time:  CPU 2.25 s  wall 2.27 s
 SCF   energy in the final basis set = -153.01314829
 Total energy in the final basis set = -153.01314829
drvman_main.C: 73: calling DrvMan  Calculating analytic gradient of the SCF energy
drvman.C : 218: Calculating analytic gradient of the SCF energy
drvman.C: 244: calling SCF_Grad for normal SCF gradient
 Job number = 111, Threshold = 1.00E-11
Integral type ranges set in mkLRange.C for JobNum: 11  <1-6|7-7>
Finding J and K together
 ML is being used
 Job number = 122, Threshold = 1.00E-11
Integral type ranges set in mkLRange.C for JobNum: 22  <1-6|1-6>
 MakeJK  time:  CPU       0.50 s  wall       0.52 s
 Gradient of SCF Energy
            1           2           3           4           5           6
    1  -0.0073234  -0.0411603   0.0116112   0.0005665   0.0429161  -0.0529097
    2  -0.0320195   0.0006603   0.0090950   0.0134006   0.0111273  -0.0155344
    3  -0.0128629  -0.0178313   0.0070881   0.0057049   0.0064882  -0.0160290
            7           8           9          10
    1   0.0081059   0.0334695   0.0021169   0.0026072
    2   0.0254903   0.0091369   0.0004921  -0.0218486
    3  -0.0020573   0.0130452   0.0072148   0.0092392
 Max gradient component =       5.291E-02
 RMS gradient           =       1.980E-02
drvman.C: 248: out of SCF_Grad for normal SCF gradient
 Gradient time:  CPU 0.52 s  wall 0.55 s
 ------------------------------------------------------------------------------
                     drvman        : Timing summary (seconds)
 ------------------------------------------------------------------------------
     job step          cpu (% of tot)      sys (% of tot)     wall (% of tot)
 ------------------------------------------------------------------------------
 ------------------------------------------------------------------------------
   Grand Totals     0.5240E+00          0.2000E-05          0.5453E+00
 ------------------------------------------------------------------------------
drvman_main.C: 77: out of DrvMan  Time for this dynamics step: 2.8 s (CPU) 2.9 s (wall)

TIME STEP #6 (t = 100.000 a.u. = 2.41888 fs)
--------------------------------------
 Instantaneous Temperature = 234.4 K
 ----------------------------------------------------------------
             Standard Nuclear Orientation (Angstroms)
    I     Atom           X                Y                Z
 ----------------------------------------------------------------
    1      C       7.6477901732    -2.0147330604     0.5885464373
    2      C       6.6226454414    -1.3254796643     0.1324503665
    3      H       8.5334365288    -1.4990799356     0.9807530310
    4      H       7.6420350272    -3.0749612074     0.7369336273
    5      C       5.3957829734    -1.9461980926    -0.3385386220
    6      C       4.3939297228    -1.2475852623    -0.8537990083
    7      H       4.5026400631    -0.1560310210    -1.0017639730
    8      H       3.5089069732    -1.7376625334    -1.1357505842
    9      H       6.6770696320    -0.2439686656     0.1619353414
   10      H       5.3385966595    -3.0350559030    -0.1416901627
 ----------------------------------------------------------------
 Nuclear Repulsion Energy =   104.6229865188 hartrees
 There are       15 alpha and       15 beta electrons

                       Distance Matrix (Angstroms)
             C (  1)   C (  2)   H (  3)   H (  4)   C (  5)   C (  6)
   C (  2)  1.316820
   H (  3)  1.097312  2.097827
   H (  4)  1.070577  2.113112  1.826868
   C (  5)  2.436333  1.453380  3.432975  2.734300
   C (  6)  3.640945  2.438428  4.534793  4.052150  1.325618
   H (  7)  3.984448  2.673663  4.688440  4.625908  2.107669  1.106889
   H (  8)  4.492251  3.387270  5.457326  4.730546  2.058965  1.050208
   H (  9)  2.063953  1.083281  2.385763  3.045702  2.188551  2.692896
   H ( 10)  2.628056  2.155594  3.718347  2.465644  1.107985  2.143489
             H (  7)   H (  8)   H (  9)
   H (  8)  1.872703
   H (  9)  2.467807  3.735286
   H ( 10)  3.118868  2.453396  3.110284

 Applying Cartesian multipole field
    Component          Value
    ---------          -----
     (2,0,0)        1.00000E-12
     (0,2,0)        2.00000E-11
     (0,0,2)       -3.00000E-10
 Nucleus-field energy     =    -0.0000000013 hartrees
 ENuRep (before)= 104.6229865188
 ENucField = -0.0000000013
 ENuRep (after) = 104.6229865175
 Job number = 2, Threshold = 1.00E-11
Integral type ranges set in mkLRange.C for JobNum: 2  <1-6|1-6>
Symmetry turned off temporarily
Symmetry turned back on
 Job number = 11, Threshold = 1.00E-11
Integral type ranges set in mkLRange.C for JobNum: 11  <1-6|7-7>
 Smallest overlap matrix eigenvalue = 1.78E-01
 Multipole matrices computed through 2nd order
 Guess from superposition of atomic densities
 Warning:  Energy on first SCF cycle will be non-variational
 SAD guess density has 30.000000 electrons
 SCF convergence criterion is 10**(-8)
 A restricted Hartree-Fock SCF calculation will be
 performed using Pulay DIIS extrapolation
 SCF converges when DIIS error is below 1.0E-08
Finding J and K together
 Job number = 22, Threshold = 1.00E-11
Integral type ranges set in mkLRange.C for JobNum: 22  <1-6|1-6>
 MakeJK  time:  CPU       0.10 s  wall       0.11 s
Fock build time:  0.10 s (CPU) 0.11 s (wall)
DIIS Errors:  Max 1.14E+00 RMS 2.19E-01

Current DIIS subspace size = 1
REM_GRID_RESTART_DIIS = 0

 ---------------------------------------
  Cycle       Energy         DIIS Error
 ---------------------------------------
    1    -152.7010995398      2.19E-01  00000
Finding J and K together
 Job number = 22, Threshold = 1.00E-11
Integral type ranges set in mkLRange.C for JobNum: 22  <1-6|1-6>
 MakeJK  time:  CPU       0.18 s  wall       0.18 s
Fock build time:  0.18 s (CPU) 0.18 s (wall)
DIIS Errors:  Max 5.77E-02 RMS 1.29E-02

Current DIIS subspace size = 2
REM_GRID_RESTART_DIIS = 0

    2    -152.9876964860      1.29E-02  00000
Finding J and K together
 Job number = 22, Threshold = 1.00E-11
Integral type ranges set in mkLRange.C for JobNum: 22  <1-6|1-6>
 MakeJK  time:  CPU       0.19 s  wall       0.19 s
Fock build time:  0.19 s (CPU) 0.19 s (wall)
DIIS Errors:  Max 1.69E-02 RMS 3.45E-03

Current DIIS subspace size = 3
REM_GRID_RESTART_DIIS = 0

    3    -153.0116547138      3.45E-03  00000
Finding J and K together
 Job number = 22, Threshold = 1.00E-11
Integral type ranges set in mkLRange.C for JobNum: 22  <1-6|1-6>
 MakeJK  time:  CPU       0.19 s  wall       0.19 s
Fock build time:  0.19 s (CPU) 0.20 s (wall)
DIIS Errors:  Max 6.61E-03 RMS 1.19E-03

Current DIIS subspace size = 4
REM_GRID_RESTART_DIIS = 0

    4    -153.0133961297      1.19E-03  00000
Finding J and K together
 Job number = 22, Threshold = 1.00E-11
Integral type ranges set in mkLRange.C for JobNum: 22  <1-6|1-6>
 MakeJK  time:  CPU       0.19 s  wall       0.28 s
Fock build time:  0.20 s (CPU) 0.30 s (wall)
DIIS Errors:  Max 8.60E-04 RMS 8.91E-05

Current DIIS subspace size = 5
REM_GRID_RESTART_DIIS = 0

    5    -153.0135418505      8.91E-05  00000
Finding J and K together
 Job number = 22, Threshold = 1.00E-11
Integral type ranges set in mkLRange.C for JobNum: 22  <1-6|1-6>
 MakeJK  time:  CPU       0.20 s  wall       0.25 s
Fock build time:  0.20 s (CPU) 0.25 s (wall)
DIIS Errors:  Max 1.25E-04 RMS 1.39E-05

Current DIIS subspace size = 6
REM_GRID_RESTART_DIIS = 0

    6    -153.0135443909      1.39E-05  00000
Finding J and K together
 Job number = 22, Threshold = 1.00E-11
Integral type ranges set in mkLRange.C for JobNum: 22  <1-6|1-6>
 MakeJK  time:  CPU       0.20 s  wall       0.21 s
Fock build time:  0.20 s (CPU) 0.21 s (wall)
DIIS Errors:  Max 1.68E-05 RMS 4.25E-06

Current DIIS subspace size = 7
REM_GRID_RESTART_DIIS = 0

    7    -153.0135444503      4.25E-06  00000
Finding J and K together
 Job number = 22, Threshold = 1.00E-11
Integral type ranges set in mkLRange.C for JobNum: 22  <1-6|1-6>
 MakeJK  time:  CPU       0.20 s  wall       0.21 s
Fock build time:  0.20 s (CPU) 0.21 s (wall)
DIIS Errors:  Max 5.56E-06 RMS 8.84E-07

Current DIIS subspace size = 8
REM_GRID_RESTART_DIIS = 0

    8    -153.0135444527      8.84E-07  00000
Finding J and K together
 Job number = 22, Threshold = 1.00E-11
Integral type ranges set in mkLRange.C for JobNum: 22  <1-6|1-6>
 MakeJK  time:  CPU       0.20 s  wall       0.21 s
Fock build time:  0.20 s (CPU) 0.21 s (wall)
DIIS Errors:  Max 1.56E-06 RMS 3.11E-07

Current DIIS subspace size = 9
REM_GRID_RESTART_DIIS = 0

    9    -153.0135444529      3.11E-07  00000
Finding J and K together
 Job number = 22, Threshold = 1.00E-11
Integral type ranges set in mkLRange.C for JobNum: 22  <1-6|1-6>
 MakeJK  time:  CPU       0.20 s  wall       0.20 s
Fock build time:  0.20 s (CPU) 0.21 s (wall)
DIIS Errors:  Max 5.85E-07 RMS 1.09E-07

Current DIIS subspace size = 10
REM_GRID_RESTART_DIIS = 0

   10    -153.0135444529      1.09E-07  00000
Finding J and K together
 Job number = 22, Threshold = 1.00E-11
Integral type ranges set in mkLRange.C for JobNum: 22  <1-6|1-6>
 MakeJK  time:  CPU       0.17 s  wall       0.19 s
Fock build time:  0.17 s (CPU) 0.19 s (wall)
DIIS Errors:  Max 7.52E-08 RMS 1.26E-08

Current DIIS subspace size = 11
REM_GRID_RESTART_DIIS = 0

   11    -153.0135444529      1.26E-08  00000
Finding J and K together
 Job number = 22, Threshold = 1.00E-11
Integral type ranges set in mkLRange.C for JobNum: 22  <1-6|1-6>
 MakeJK  time:  CPU       0.18 s  wall       0.18 s
Fock build time:  0.18 s (CPU) 0.19 s (wall)
DIIS Errors:  Max 1.39E-08 RMS 3.46E-09

Current DIIS subspace size = 12
REM_GRID_RESTART_DIIS = 0

   12    -153.0135444529      3.46E-09  00000 Convergence criterion met
 ---------------------------------------
 SCF time:  CPU 2.23 s  wall 2.47 s
 SCF   energy in the final basis set = -153.01354445
 Total energy in the final basis set = -153.01354445
drvman_main.C: 73: calling DrvMan  Calculating analytic gradient of the SCF energy
drvman.C : 218: Calculating analytic gradient of the SCF energy
drvman.C: 244: calling SCF_Grad for normal SCF gradient
 Job number = 111, Threshold = 1.00E-11
Integral type ranges set in mkLRange.C for JobNum: 11  <1-6|7-7>
Finding J and K together
 ML is being used
 Job number = 122, Threshold = 1.00E-11
Integral type ranges set in mkLRange.C for JobNum: 22  <1-6|1-6>
 MakeJK  time:  CPU       0.53 s  wall       0.55 s
 Gradient of SCF Energy
            1           2           3           4           5           6
    1  -0.0113907  -0.0323768   0.0096230   0.0007888   0.0342982  -0.0451098
    2  -0.0246425  -0.0014542   0.0075040   0.0115828   0.0105719  -0.0123049
    3  -0.0173137  -0.0139497   0.0068273   0.0073575   0.0010155  -0.0125322
            7           8           9          10
    1   0.0085964   0.0296006   0.0017508   0.0042194
    2   0.0227506   0.0063782  -0.0006673  -0.0197184
    3  -0.0015334   0.0117425   0.0080878   0.0102986
 Max gradient component =       4.511E-02
 RMS gradient           =       1.686E-02
drvman.C: 248: out of SCF_Grad for normal SCF gradient
 Gradient time:  CPU 0.55 s  wall 0.57 s
 ------------------------------------------------------------------------------
                     drvman        : Timing summary (seconds)
 ------------------------------------------------------------------------------
     job step          cpu (% of tot)      sys (% of tot)     wall (% of tot)
 ------------------------------------------------------------------------------
 ------------------------------------------------------------------------------
   Grand Totals     0.5520E+00          0.1000E-05          0.5745E+00
 ------------------------------------------------------------------------------
drvman_main.C: 77: out of DrvMan  Time for this dynamics step: 2.8 s (CPU) 3.1 s (wall)

TIME STEP #7 (t = 120.000 a.u. = 2.90266 fs)
--------------------------------------
 Instantaneous Temperature = 242.3 K
 ----------------------------------------------------------------
             Standard Nuclear Orientation (Angstroms)
    I     Atom           X                Y                Z
 ----------------------------------------------------------------
    1      C       7.6462410094    -2.0131630228     0.5860177584
    2      C       6.6256599517    -1.3266370293     0.1308821756
    3      H       8.5255723265    -1.5010208439     0.9845069856
    4      H       7.6398615434    -3.0750336918     0.7497015320
    5      C       5.3937645571    -1.9474300239    -0.3423152822
    6      C       4.3951849058    -1.2464615104    -0.8494262301
    7      H       4.5095184775    -0.1617027876    -0.9974377973
    8      H       3.4987997678    -1.7365850601    -1.1273337724
    9      H       6.6765319034    -0.2462269842     0.1670624233
   10      H       5.3440409648    -3.0298154303    -0.1343994441
 ----------------------------------------------------------------
 Nuclear Repulsion Energy =   104.7288317511 hartrees
 There are       15 alpha and       15 beta electrons

                       Distance Matrix (Angstroms)
             C (  1)   C (  2)   H (  3)   H (  4)   C (  5)   C (  6)
   C (  2)  1.311508
   H (  3)  1.092843  2.090156
   H (  4)  1.074431  2.113867  1.821300
   C (  5)  2.437165  1.458378  3.430446  2.740245
   C (  6)  3.635615  2.437714  4.526391  4.053247  1.321242
   H (  7)  3.971683  2.666127  4.674459  4.619420  2.097593  1.100764
   H (  8)  4.495925  3.395353  5.457454  4.739525  2.061941  1.058754
   H (  9)  2.058621  1.082212  2.379427  3.044605  2.190673  2.690402
   H ( 10)  2.617768  2.147961  3.702878  2.460584  1.103295  2.142882
[...]
 ML is being used
 Job number = 122, Threshold = 1.00E-11
Integral type ranges set in mkLRange.C for JobNum: 22  <1-6|1-6>
 MakeJK  time:  CPU       0.44 s  wall       0.45 s
 Gradient of SCF Energy
            1           2           3           4           5           6
    1   0.0075201  -0.0371809   0.0074871  -0.0063434   0.0754668  -0.0350296
    2  -0.0335444   0.0143585   0.0080462   0.0062548  -0.0154632   0.0010012
    3   0.0227246  -0.0091277  -0.0114398  -0.0045293  -0.0063641  -0.0024526
            7           8           9          10
    1  -0.0024963   0.0104229  -0.0073752  -0.0124714
    2   0.0094055   0.0081166   0.0055279  -0.0037032
    3  -0.0042881  -0.0010291   0.0067823   0.0097238
 Max gradient component =       7.547E-02
 RMS gradient           =       1.968E-02
drvman.C: 248: out of SCF_Grad for normal SCF gradient
 Gradient time:  CPU 0.45 s  wall 0.47 s
 ------------------------------------------------------------------------------
                     drvman        : Timing summary (seconds)
 ------------------------------------------------------------------------------
     job step          cpu (% of tot)      sys (% of tot)     wall (% of tot)
 ------------------------------------------------------------------------------
 ------------------------------------------------------------------------------
   Grand Totals     0.4520E+00          0.2000E-05          0.4717E+00
 ------------------------------------------------------------------------------
drvman_main.C: 77: out of DrvMan  Time for this dynamics step: 1.7 s (CPU) 1.8 s (wall)

TIME STEP #399 (t = 7960.000 a.u. = 192.54319 fs)
--------------------------------------
 Instantaneous Temperature = 175.3 K
 ----------------------------------------------------------------
             Standard Nuclear Orientation (Angstroms)
    I     Atom           X                Y                Z
 ----------------------------------------------------------------
    1      C       7.7311366131    -2.2380884138    -0.0616666243
    2      C       6.7152768569    -1.3763737411    -0.0680554907
    3      H       8.7516390424    -1.8938897231    -0.2885225081
    4      H       7.5099389811    -3.2879880661    -0.0730196161
    5      C       5.3408764131    -1.8337406591     0.0437721165
    6      C       4.2984276247    -1.0868017012    -0.3418010474
    7      H       4.4108030357    -0.1014117365    -0.8134104916
    8      H       3.2963719651    -1.3888469172    -0.1990140781
    9      H       6.8306042992    -0.2937798234    -0.0929431392
   10      H       5.0988810129    -2.7688357909     0.5483136559
 ----------------------------------------------------------------
 Nuclear Repulsion Energy =   104.2773660412 hartrees
 There are       15 alpha and       15 beta electrons

                       Distance Matrix (Angstroms)
             C (  1)   C (  2)   H (  3)   H (  4)   C (  5)   C (  6)
   C (  2)  1.332128
   H (  3)  1.100619  2.112629
   H (  4)  1.073008  2.070213  1.879301
   C (  5)  2.426512  1.452813  3.427439  2.614060
   C (  6)  3.631450  2.449479  4.526071  3.902726  1.339136
   H (  7)  4.019343  2.737094  4.725605  4.506339  2.144939  1.098197
   H (  8)  4.517434  3.421435  5.479326  4.623501  2.106389  1.056284
   H (  9)  2.142959  1.089004  2.507783  3.070371  2.146965  2.665095
   H ( 10)  2.753641  2.220720  3.848177  2.543379  1.089737  2.064526
             H (  7)   H (  8)   H (  9)
   H (  8)  1.810229
   H (  9)  2.532097  3.701516
   H ( 10)  3.072929  2.389960  3.088038

 Applying Cartesian multipole field
    Component          Value
    ---------          -----
     (2,0,0)        1.00000E-12
     (0,2,0)        2.00000E-11
     (0,0,2)       -3.00000E-10
 Nucleus-field energy     =     0.0000000087 hartrees
 ENuRep (before)= 104.2773660412
 ENucField = 0.0000000087
 ENuRep (after) = 104.2773660499
 Job number = 2, Threshold = 1.00E-11
Integral type ranges set in mkLRange.C for JobNum: 2  <1-6|1-6>
Symmetry turned off temporarily
Symmetry turned back on
 Job number = 11, Threshold = 1.00E-11
Integral type ranges set in mkLRange.C for JobNum: 11  <1-6|7-7>
 Smallest overlap matrix eigenvalue = 1.83E-01
 Multipole matrices computed through 2nd order
 Extrapolating the Fock matrix using 12 points and a 6th-order polynomial
 Alpha Fock matrix extrapolation
 Skip SCF guess (diagonalize extrapolated Fock matrix instead)
 SCF convergence criterion is 10**(-8)
 A restricted Hartree-Fock SCF calculation will be
 performed using Pulay DIIS extrapolation
 SCF converges when DIIS error is below 1.0E-08
Extrapolated Fock matrix used in lieu of Fock build
Fock build time:  0.00 s (CPU) 0.00 s (wall)
DIIS Errors:  Max 2.02E-02 RMS 2.12E-03

Current DIIS subspace size = 1
REM_GRID_RESTART_DIIS = 0

 ---------------------------------------
  Cycle       Energy         DIIS Error
 ---------------------------------------
    1    -308.6504887018      2.12E-03  00000
Finding J and K together
 Job number = 22, Threshold = 1.00E-11
Integral type ranges set in mkLRange.C for JobNum: 22  <1-6|1-6>
 MakeJK  time:  CPU       0.18 s  wall       0.19 s
Fock build time:  0.18 s (CPU) 0.19 s (wall)
DIIS Errors:  Max 9.87E-04 RMS 1.12E-04

Current DIIS subspace size = 2
REM_GRID_RESTART_DIIS = 0

    2    -153.0090539575      1.12E-04  00000
Finding J and K together
 Job number = 22, Threshold = 1.00E-11
Integral type ranges set in mkLRange.C for JobNum: 22  <1-6|1-6>
 MakeJK  time:  CPU       0.19 s  wall       0.20 s
Fock build time:  0.19 s (CPU) 0.20 s (wall)
DIIS Errors:  Max 5.58E-05 RMS 8.18E-06

Current DIIS subspace size = 3
REM_GRID_RESTART_DIIS = 0

    3    -153.0090541867      8.18E-06  00000
Finding J and K together
 Job number = 22, Threshold = 1.00E-11
Integral type ranges set in mkLRange.C for JobNum: 22  <1-6|1-6>
 MakeJK  time:  CPU       0.14 s  wall       0.15 s
Fock build time:  0.14 s (CPU) 0.15 s (wall)
DIIS Errors:  Max 1.32E-05 RMS 1.99E-06

Current DIIS subspace size = 4
REM_GRID_RESTART_DIIS = 0

    4    -153.0090541910      1.99E-06  00000
Finding J and K together
 Job number = 22, Threshold = 1.00E-11
Integral type ranges set in mkLRange.C for JobNum: 22  <1-6|1-6>
 MakeJK  time:  CPU       0.11 s  wall       0.11 s
Fock build time:  0.11 s (CPU) 0.11 s (wall)
DIIS Errors:  Max 3.70E-06 RMS 7.76E-07

Current DIIS subspace size = 5
REM_GRID_RESTART_DIIS = 0

    5    -153.0090541916      7.76E-07  00000
Finding J and K together
 Job number = 22, Threshold = 1.00E-11
Integral type ranges set in mkLRange.C for JobNum: 22  <1-6|1-6>
 MakeJK  time:  CPU       0.11 s  wall       0.11 s
Fock build time:  0.11 s (CPU) 0.11 s (wall)
DIIS Errors:  Max 9.29E-07 RMS 1.28E-07

Current DIIS subspace size = 6
REM_GRID_RESTART_DIIS = 0

    6    -153.0090541917      1.28E-07  00000
Finding J and K together
 Job number = 22, Threshold = 1.00E-11
Integral type ranges set in mkLRange.C for JobNum: 22  <1-6|1-6>
 MakeJK  time:  CPU       0.18 s  wall       0.17 s
Fock build time:  0.18 s (CPU) 0.17 s (wall)
DIIS Errors:  Max 2.16E-07 RMS 3.08E-08

Current DIIS subspace size = 7
REM_GRID_RESTART_DIIS = 0

    7    -153.0090541917      3.08E-08  00000
Finding J and K together
 Job number = 22, Threshold = 1.00E-11
Integral type ranges set in mkLRange.C for JobNum: 22  <1-6|1-6>
 MakeJK  time:  CPU       0.17 s  wall       0.17 s
Fock build time:  0.17 s (CPU) 0.17 s (wall)
DIIS Errors:  Max 5.66E-08 RMS 1.25E-08

Current DIIS subspace size = 8
REM_GRID_RESTART_DIIS = 0

    8    -153.0090541917      1.25E-08  00000
Finding J and K together
 Job number = 22, Threshold = 1.00E-11
Integral type ranges set in mkLRange.C for JobNum: 22  <1-6|1-6>
 MakeJK  time:  CPU       0.14 s  wall       0.13 s
Fock build time:  0.14 s (CPU) 0.13 s (wall)
DIIS Errors:  Max 2.78E-08 RMS 3.32E-09

Current DIIS subspace size = 9
REM_GRID_RESTART_DIIS = 0

    9    -153.0090541917      3.32E-09  00000 Convergence criterion met
 ---------------------------------------
 SCF time:  CPU 1.23 s  wall 1.25 s
 SCF   energy in the final basis set = -153.00905419
 Total energy in the final basis set = -153.00905419
drvman_main.C: 73: calling DrvMan  Calculating analytic gradient of the SCF energy
drvman.C : 218: Calculating analytic gradient of the SCF energy
drvman.C: 244: calling SCF_Grad for normal SCF gradient
 Job number = 111, Threshold = 1.00E-11
Integral type ranges set in mkLRange.C for JobNum: 11  <1-6|7-7>
Finding J and K together
 ML is being used
 Job number = 122, Threshold = 1.00E-11
Integral type ranges set in mkLRange.C for JobNum: 22  <1-6|1-6>
 MakeJK  time:  CPU       0.46 s  wall       0.46 s
 Gradient of SCF Energy
            1           2           3           4           5           6
    1   0.0062819  -0.0414504   0.0119660  -0.0068385   0.0759940  -0.0481653
    2  -0.0420314   0.0164563   0.0110094   0.0094883  -0.0225059  -0.0037289
    3   0.0256431  -0.0096551  -0.0134130  -0.0048673  -0.0022044  -0.0003857
            7           8           9          10
    1  -0.0024114   0.0226468  -0.0068880  -0.0111351
    2   0.0134392   0.0111846   0.0059297   0.0007588
    3  -0.0063550  -0.0023986   0.0067127   0.0069233
 Max gradient component =       7.599E-02
 RMS gradient           =       2.232E-02
drvman.C: 248: out of SCF_Grad for normal SCF gradient
 Gradient time:  CPU 0.47 s  wall 0.47 s
 ------------------------------------------------------------------------------
                     drvman        : Timing summary (seconds)
 ------------------------------------------------------------------------------
     job step          cpu (% of tot)      sys (% of tot)     wall (% of tot)
 ------------------------------------------------------------------------------
 ------------------------------------------------------------------------------
   Grand Totals     0.4720E+00          0.2000E-05          0.4715E+00
 ------------------------------------------------------------------------------
drvman_main.C: 77: out of DrvMan  Time for this dynamics step: 1.7 s (CPU) 1.8 s (wall)

TIME STEP #400 (t = 7980.000 a.u. = 193.02697 fs)
--------------------------------------
 Instantaneous Temperature = 147.7 K
 ----------------------------------------------------------------
             Standard Nuclear Orientation (Angstroms)
    I     Atom           X                Y                Z
 ----------------------------------------------------------------
    1      C       7.7321987833    -2.2392389037    -0.0615651806
    2      C       6.7137100990    -1.3770451788    -0.0690974345
    3      H       8.7511578674    -1.8862516524    -0.3042922495
    4      H       7.5082914216    -3.2866521479    -0.0756000012
    5      C       5.3401191749    -1.8346319432     0.0459459827
    6      C       4.2988146142    -1.0851331649    -0.3404982837
    7      H       4.4086509835    -0.0960734250    -0.8124234576
    8      H       3.3072632628    -1.3908470221    -0.1982772925
    9      H       6.8317369676    -0.2948937629    -0.0993631151
   10      H       5.1015543082    -2.7675953364     0.5411628256
 ----------------------------------------------------------------
 Nuclear Repulsion Energy =   104.2916980392 hartrees
 There are       15 alpha and       15 beta electrons

                       Distance Matrix (Angstroms)
             C (  1)   C (  2)   H (  3)   H (  4)   C (  5)   C (  6)
   C (  2)  1.334449
   H (  3)  1.105348  2.113244
   H (  4)  1.071170  2.068333  1.886303
   C (  5)  2.428438  1.452368  3.429361  2.612299
   C (  6)  3.632890  2.447568  4.523987  3.900974  1.339926
   H (  7)  4.025285  2.739839  4.724437  4.508932  2.151050  1.101370
   H (  8)  4.507606  3.408923  5.467417  4.610614  2.095016  1.047312
   H (  9)  2.143067  1.088989  2.501718  3.067394  2.148681  2.664267
   H ( 10)  2.750042  2.214745  3.848528  2.538149  1.082854  2.062134
             H (  7)   H (  8)   H (  9)
   H (  8)  1.807393
   H (  9)  2.533640  3.692264
   H ( 10)  3.073978  2.379430  3.085135

 Applying Cartesian multipole field
    Component          Value
    ---------          -----
     (2,0,0)        1.00000E-12
     (0,2,0)        2.00000E-11
     (0,0,2)       -3.00000E-10
 Nucleus-field energy     =     0.0000000087 hartrees
 ENuRep (before)= 104.2916980392
 ENucField = 0.0000000087
 ENuRep (after) = 104.2916980480
 Job number = 2, Threshold = 1.00E-11
Integral type ranges set in mkLRange.C for JobNum: 2  <1-6|1-6>
Symmetry turned off temporarily
Symmetry turned back on
 Job number = 11, Threshold = 1.00E-11
Integral type ranges set in mkLRange.C for JobNum: 11  <1-6|7-7>
 Smallest overlap matrix eigenvalue = 1.83E-01
 Multipole matrices computed through 2nd order
 Extrapolating the Fock matrix using 12 points and a 6th-order polynomial
 Alpha Fock matrix extrapolation
 Skip SCF guess (diagonalize extrapolated Fock matrix instead)
 SCF convergence criterion is 10**(-8)
 A restricted Hartree-Fock SCF calculation will be
 performed using Pulay DIIS extrapolation
 SCF converges when DIIS error is below 1.0E-08
Extrapolated Fock matrix used in lieu of Fock build
Fock build time:  0.00 s (CPU) 0.00 s (wall)
DIIS Errors:  Max 1.59E-02 RMS 1.66E-03

Current DIIS subspace size = 1
REM_GRID_RESTART_DIIS = 0

 ---------------------------------------
  Cycle       Energy         DIIS Error
 ---------------------------------------
    1    -308.6708048109      1.66E-03  00000
Finding J and K together
 Job number = 22, Threshold = 1.00E-11
Integral type ranges set in mkLRange.C for JobNum: 22  <1-6|1-6>
 MakeJK  time:  CPU       0.16 s  wall       0.16 s
Fock build time:  0.16 s (CPU) 0.16 s (wall)
DIIS Errors:  Max 1.82E-03 RMS 1.94E-04

Current DIIS subspace size = 2
REM_GRID_RESTART_DIIS = 0

    2    -153.0078395359      1.94E-04  00000
Finding J and K together
 Job number = 22, Threshold = 1.00E-11
Integral type ranges set in mkLRange.C for JobNum: 22  <1-6|1-6>
 MakeJK  time:  CPU       0.19 s  wall       0.19 s
Fock build time:  0.19 s (CPU) 0.19 s (wall)
DIIS Errors:  Max 1.43E-04 RMS 1.67E-05

Current DIIS subspace size = 3
REM_GRID_RESTART_DIIS = 0

    3    -153.0078401613      1.67E-05  00000
Finding J and K together
 Job number = 22, Threshold = 1.00E-11
Integral type ranges set in mkLRange.C for JobNum: 22  <1-6|1-6>
 MakeJK  time:  CPU       0.19 s  wall       0.21 s
Fock build time:  0.19 s (CPU) 0.21 s (wall)
DIIS Errors:  Max 1.90E-05 RMS 2.40E-06

Current DIIS subspace size = 4
REM_GRID_RESTART_DIIS = 0

    4    -153.0078401705      2.40E-06  00000
Finding J and K together
 Job number = 22, Threshold = 1.00E-11
Integral type ranges set in mkLRange.C for JobNum: 22  <1-6|1-6>
 MakeJK  time:  CPU       0.12 s  wall       0.13 s
Fock build time:  0.12 s (CPU) 0.13 s (wall)
DIIS Errors:  Max 4.90E-06 RMS 9.37E-07

Current DIIS subspace size = 5
REM_GRID_RESTART_DIIS = 0

    5    -153.0078401712      9.37E-07  00000
Finding J and K together
 Job number = 22, Threshold = 1.00E-11
Integral type ranges set in mkLRange.C for JobNum: 22  <1-6|1-6>
 MakeJK  time:  CPU       0.14 s  wall       0.14 s
Fock build time:  0.14 s (CPU) 0.14 s (wall)
DIIS Errors:  Max 8.39E-07 RMS 1.54E-07

Current DIIS subspace size = 6
REM_GRID_RESTART_DIIS = 0

    6    -153.0078401713      1.54E-07  00000
Finding J and K together
 Job number = 22, Threshold = 1.00E-11
Integral type ranges set in mkLRange.C for JobNum: 22  <1-6|1-6>
 MakeJK  time:  CPU       0.16 s  wall       0.16 s
Fock build time:  0.16 s (CPU) 0.16 s (wall)
DIIS Errors:  Max 3.84E-07 RMS 4.79E-08

Current DIIS subspace size = 7
REM_GRID_RESTART_DIIS = 0

    7    -153.0078401713      4.79E-08  00000
Finding J and K together
 Job number = 22, Threshold = 1.00E-11
Integral type ranges set in mkLRange.C for JobNum: 22  <1-6|1-6>
 MakeJK  time:  CPU       0.14 s  wall       0.14 s
Fock build time:  0.14 s (CPU) 0.14 s (wall)
DIIS Errors:  Max 9.34E-08 RMS 1.93E-08

Current DIIS subspace size = 8
REM_GRID_RESTART_DIIS = 0

    8    -153.0078401713      1.93E-08  00000
Finding J and K together
 Job number = 22, Threshold = 1.00E-11
Integral type ranges set in mkLRange.C for JobNum: 22  <1-6|1-6>
 MakeJK  time:  CPU       0.15 s  wall       0.15 s
Fock build time:  0.15 s (CPU) 0.15 s (wall)
DIIS Errors:  Max 1.60E-08 RMS 3.31E-09

Current DIIS subspace size = 9
REM_GRID_RESTART_DIIS = 0

    9    -153.0078401713      3.31E-09  00000 Convergence criterion met
 ---------------------------------------
 SCF time:  CPU 1.27 s  wall 1.29 s
 SCF   energy in the final basis set = -153.00784017
 Total energy in the final basis set = -153.00784017
drvman_main.C: 73: calling DrvMan  Calculating analytic gradient of the SCF energy
drvman.C : 218: Calculating analytic gradient of the SCF energy
drvman.C: 244: calling SCF_Grad for normal SCF gradient
 Job number = 111, Threshold = 1.00E-11
Integral type ranges set in mkLRange.C for JobNum: 11  <1-6|7-7>
Finding J and K together
 ML is being used
 Job number = 122, Threshold = 1.00E-11
Integral type ranges set in mkLRange.C for JobNum: 22  <1-6|1-6>
 MakeJK  time:  CPU       0.47 s  wall       0.48 s
 Gradient of SCF Energy
            1           2           3           4           5           6
    1   0.0059758  -0.0442891   0.0149103  -0.0073705   0.0741168  -0.0571952
    2  -0.0478963   0.0183474   0.0133011   0.0114704  -0.0294539  -0.0068785
    3   0.0280892  -0.0100363  -0.0150503  -0.0051709   0.0019172   0.0009261
            7           8           9          10
    1  -0.0024531   0.0320836  -0.0063837  -0.0093949
    2   0.0160514   0.0134191   0.0059326   0.0057069
    3  -0.0077609  -0.0033369   0.0065633   0.0038596
 Max gradient component =       7.412E-02
 RMS gradient           =       2.439E-02
drvman.C: 248: out of SCF_Grad for normal SCF gradient
 Gradient time:  CPU 0.49 s  wall 0.50 s
 ------------------------------------------------------------------------------
                     drvman        : Timing summary (seconds)
 ------------------------------------------------------------------------------
     job step          cpu (% of tot)      sys (% of tot)     wall (% of tot)
 ------------------------------------------------------------------------------
 ------------------------------------------------------------------------------
   Grand Totals     0.4880E+00          0.1000E-05          0.4977E+00
 ------------------------------------------------------------------------------
drvman_main.C: 77: out of DrvMan  Time for this dynamics step: 1.8 s (CPU) 1.8 s (wall)

=============== TIME STEPS COMPLETED ==================

Step-to-Step energy fluctuations, |E(n) - E(n-1)|
Mean: 1.195e-07   Max: 3.387e-05   RMS: 1.730e-05
Overall energy fluctuations, |E(n) - E(0)|
Mean: 4.053e-05   Max: 9.803e-05   RMS: 2.675e-05   RMS(dE)/RMS(dV): 1.311e-02
Kinetic energy fluctuations, |T(n) - V(0)|
Mean: -4.749e-03   Max: 9.073e-03   RMS: 2.023e-03
Potential energy fluctuations, |V(n) - V(0)|
Mean: 4.789e-03   Max: 9.157e-03   RMS: 2.040e-03


 JobOver = TRUE
Archival summary:
1\1\qciep03\JobtypUnspecified\HF\STO-3G\46\jcartus\MonJun1812:23:012018MonJun1812:23:012018\0\\#,JobtypUnspecified,HF,STO-3G,\\0,1\C\H,1,1.08285\C,1,1.33993,2,116.271\H,3,1.04731,1,122.23,2,-1.62918,0\H,3,1.10137,1,123.257,2,177.153,0\C,1,1.45237,2,121.067,3,174.312,0\H,6,1.08899,1,114.695,2,-150.474,0\C,6,1.33445,1,121.186,2,26.0541,0\H,8,1.07117,6,118.175,1,6.53433,0\H,8,1.10535,6,119.736,1,170.669,0\\HF=-153.00784\\@

 Total job time:  785.73s(wall), 752.11s(cpu) 
 Mon Jun 18 12:23:01 2018

        *************************************************************
        *                                                           *
        *  Thank you very much for using Q-Chem.  Have a nice day.  *
        *                                                           *
        *************************************************************


*** MISSION COMPLETED -- STARFLEET OUT ***

0 sent ACK to 0 
now end server 0 ... 
