Process 0 of 1 is on qciep03 - thread support 0
initial socket setup ...start
initial socket setup ...done 
now start server 0 ... 
qciep03.tugraz.at 127.0.1
Q-Chem Developer Version! Running on 127.0.1.*
                  Welcome to Q-Chem
     A Quantum Leap Into The Future Of Chemistry


 Q-Chem 5.0, Q-Chem, Inc., Pleasanton, CA (2017)

 Yihan Shao,  Zhengting Gan,  E. Epifanovsky,  A. T. B. Gilbert,  M. Wormit,  
 J. Kussmann,  A. W. Lange,  A. Behn,  Jia Deng,  Xintian Feng,  D. Ghosh,  
 M. Goldey,  P. R. Horn,  L. D. Jacobson,  I. Kaliman,  T. Kus,  A. Landau,  
 Jie Liu,  E. I. Proynov,  R. M. Richard,  R. P. Steele,  E. J. Sundstrom,  
 H. L. Woodcock III,  P. M. Zimmerman,  D. Zuev,  B. Albrecht,  E. Alguire,  
 S. A. Baeppler,  D. Barton,  Z. Benda,  Y. A. Bernard,  E. J. Berquist,  
 K. B. Bravaya,  H. Burton,  D. Casanova,  Chun-Min Chang,  Yunqing Chen,  
 A. Chien,  K. D. Closser,  M. P. Coons,  S. Dasgupta,  A. L. Dempwolff,  
 M. Diedenhofen,  Hainam Do,  R. G. Edgar,  Po-Tung Fang,  S. Fatehi,  
 Qingguo Feng,  J. Fosso-Tande,  Qinghui Ge,  A. Ghysels,  G. Gidofalvi,  
 J. Gomes,  J. Gonthier,  A. Gunina,  M. W. D. Hanson-Heine,  
 P. H. P. Harbach,  A. W. Hauser,  J. E. Herr,  E. G. Hohenstein,  
 Z. C. Holden,  Kerwin Hui,  T.-C. Jagau,  Hyunjun Ji,  B. Kaduk,  
 K. Khistyaev,  Jaehoon Kim,  P. Klunzinger,  K. Koh,  D. Kosenkov,  
 L. Koulias,  T. Kowalczyk,  C. M. Krauter,  A. Kunitsa,  Ka Un Lao,  
 A. Laurent,  K. V. Lawler,  Joonho Lee,  D. Lefrancois,  S. Lehtola,  
 D. S. Levine,  Yi-Pei Li,  You-Sheng Lin,  Fenglai Liu,  E. Livshits,  
 A. Luenser,  P. Manohar,  E. Mansoor,  S. F. Manzer,  Shan-Ping Mao,  
 Yuezhi Mao,  N. Mardirossian,  A. V. Marenich,  T. Markovich,  
 L. A. Martinez-Martinez,  S. A. Maurer,  N. J. Mayhall,  S. C. McKenzie,  
 J.-M. Mewes,  A. F. Morrison,  J. W. Mullinax,  K. Nanda,  
 T. S. Nguyen-Beck,  R. Olivares-Amaya,  J. A. Parkhill,  T. M. Perrine,  
 F. Plasser,  S. Prager,  A. Prociuk,  E. Ramos,  D. R. Rehn,  F. Rob,  
 M. Schneider,  N. Sergueev,  S. M. Sharada,  S. Sharma,  D. W. Small,  
 T. Stauch,  T. Stein,  Yu-Chuan Su,  A. J. W. Thom,  A. Tkatchenko,  
 T. Tsuchimochi,  L. Vogt,  O. Vydrov,  M. A. Watson,  J. Wenzel,  
 M. de Wergifosse,  T. A. Wesolowski,  A. White,  J. Witte,  A. Yamada,  
 Jun Yang,  K. Yao,  S. Yeganeh,  S. R. Yost,  Zhi-Qiang You,  A. Zech,  
 Igor Ying Zhang,  Xing Zhang,  Yan Zhao,  Ying Zhu,  B. R. Brooks,  
 G. K. L. Chan,  C. J. Cramer,  M. S. Gordon,  W. J. Hehre,  A. Klamt,  
 M. W. Schmidt,  C. D. Sherrill,  D. G. Truhlar,  A. Aspuru-Guzik,  R. Baer,  
 A. T. Bell,  N. A. Besley,  Jeng-Da Chai,  R. A. DiStasio Jr.,  A. Dreuw,  
 B. D. Dunietz,  T. R. Furlani,  Chao-Ping Hsu,  Yousung Jung,  Jing Kong,  
 D. S. Lambrecht,  WanZhen Liang,  C. Ochsenfeld,  V. A. Rassolov,  
 L. V. Slipchenko,  J. E. Subotnik,  T. Van Voorhis,  J. M. Herbert,  
 A. I. Krylov,  P. M. W. Gill,  M. Head-Gordon

 Contributors to earlier versions of Q-Chem not listed above: 
 R. D. Adamson,  B. Austin,  J. Baker,  G. J. O. Beran,  K. Brandhorst,  
 S. T. Brown,  E. F. C. Byrd,  A. K. Chakraborty,  C.-L. Cheng,  
 Siu Hung Chien,  D. M. Chipman,  D. L. Crittenden,  H. Dachsel,  
 R. J. Doerksen,  A. D. Dutoi,  L. Fusti-Molnar,  W. A. Goddard III,  
 A. Golubeva-Zadorozhnaya,  S. R. Gwaltney,  G. Hawkins,  A. Heyden,  
 S. Hirata,  G. Kedziora,  F. J. Keil,  C. Kelley,  Jihan Kim,  R. A. King,  
 R. Z. Khaliullin,  P. P. Korambath,  W. Kurlancheek,  A. M. Lee,  M. S. Lee,  
 S. V. Levchenko,  Ching Yeh Lin,  D. Liotard,  R. C. Lochan,  I. Lotan,  
 P. E. Maslen,  N. Nair,  D. P. O'Neill,  D. Neuhauser,  E. Neuscamman,  
 C. M. Oana,  R. Olson,  B. Peters,  R. Peverati,  P. A. Pieniazek,  
 Y. M. Rhee,  J. Ritchie,  M. A. Rohrdanz,  E. Rosta,  N. J. Russ,  
 H. F. Schaefer III,  N. E. Schultz,  N. Shenvi,  A. C. Simmonett,  A. Sodt,  
 D. Stuck,  K. S. Thanthiriwatte,  V. Vanovschi,  Tao Wang,  A. Warshel,  
 C. F. Williams,  Q. Wu,  X. Xu,  W. Zhang

 Please cite Q-Chem as follows:
 Y. Shao et al., Mol. Phys. 113, 184-215 (2015)
 DOI: 10.1080/00268976.2014.952696

 Q-Chem 5.0.2 for Intel X86 EM64T Linux

 Parts of Q-Chem use Armadillo 5.200.1 (Boston Tea Smuggler).
 http://arma.sourceforge.net/

 Q-Chem begins on Mon Jun 18 12:51:59 2018  


Host: 0

     Scratch files written to /home/jcartus/scratch/Butadien_26.mol.dir//
 Using version located at /usr/local/qchem/bin/qchem

 Parallel job on  1  processors
Symmetry disabled for AIMD jobs.

Total Memory Limit in MB = 2000
Mega-Array Size in MB = 192

Checking the input file for inconsistencies... 	...done.
Finally everything over in PARseQInput

--------------------------------------------------------------
User input:
--------------------------------------------------------------
$rem
AIMD_STEPS                    400
FOCK_EXTRAP_POINTS            12
MAX_SCF_CYCLES                100
BASIS                         sto-3g
AIMD_INIT_VELOC               thermal
FOCK_EXTRAP_ORDER             6
AIMD_TEMP                     400
AIMD_METHOD                   bomd
TIME_STEP                     20
METHOD                        hf
JOBTYPE                       aimd
$end

$molecule
0 1
C    5.32913    -1.02468    -0.27300
C    4.28556    -0.06484    -0.15210
H    6.20641    -0.82871    0.38171
H    5.81956    -1.65468    -1.19487
C    3.24443    -0.62608    -1.17202
C    1.90582    0.76670    -1.20900
H    1.13568    0.32663    -1.83021
H    1.72358    1.54442    -0.39457
H    4.38618    0.85023    0.34045
H    3.45627    -1.47542    -1.97513
$end


--------------------------------------------------------------
 ----------------------------------------------------------------
             Standard Nuclear Orientation (Angstroms)
    I     Atom           X                Y                Z
 ----------------------------------------------------------------
    1      C       5.3291300000    -1.0246800000    -0.2730000000
    2      C       4.2855600000    -0.0648400000    -0.1521000000
    3      H       6.2064100000    -0.8287100000     0.3817100000
    4      H       5.8195600000    -1.6546800000    -1.1948700000
    5      C       3.2444300000    -0.6260800000    -1.1720200000
    6      C       1.9058200000     0.7667000000    -1.2090000000
    7      H       1.1356800000     0.3266300000    -1.8302100000
    8      H       1.7235800000     1.5444200000    -0.3945700000
    9      H       4.3861800000     0.8502300000     0.3404500000
   10      H       3.4562700000    -1.4754200000    -1.9751300000
 ----------------------------------------------------------------
 Nuclear Repulsion Energy =    94.3741591284 hartrees
 There are       15 alpha and       15 beta electrons
 Requested basis set is STO-3G
 There are 14 shells and 26 basis functions

 Total QAlloc Memory Limit   2000 MB
 Mega-Array Size       188 MB
 MEM_STATIC part       192 MB

finished with qalloc call

                       Distance Matrix (Angstroms)
             C (  1)   C (  2)   H (  3)   H (  4)   C (  5)   C (  6)
   C (  2)  1.423007
   H (  3)  1.112056  2.134974
   H (  4)  1.219535  2.442973  1.821396
   C (  5)  2.305015  1.561787  3.350890  2.773055
   C (  6)  3.975448  2.733434  4.854973  4.602243  1.932118
   H (  7)  4.672897  3.590410  5.651522  5.125230  2.405763  1.082903
   H (  8)  4.428888  3.035169  5.131288  5.258495  2.761971  1.140770
   H (  9)  2.186496  1.044070  2.476647  3.269000  2.402218  2.925741
   H ( 10)  2.570606  2.449673  3.679157  2.495211  1.187956  2.831599
             H (  7)   H (  8)   H (  9)
   H (  8)  1.972233
   H (  9)  3.943561  2.848086
   H ( 10)  2.941687  3.823587  3.411054

 Job number = 2, Threshold = 1.00E-11
Integral type ranges set in mkLRange.C for JobNum: 2  <1-6|1-6>
Symmetry turned off temporarily
 Using the largest function pair in Schwarz integrals
Total number of integrals generated =            3252
Symmetry turned back on
 A cutoff of  1.0D-11 yielded    102 shell pairs
 There are       372 function pairs
 Job number = 11, Threshold = 1.00E-11
Integral type ranges set in mkLRange.C for JobNum: 11  <1-6|7-7>
Total number of integrals generated =            3720
 Smallest overlap matrix eigenvalue = 2.25E-01
 Multipole matrices computed through 2nd order

 Scale SEOQF with 1.000000e-02/1.000000e-01/1.000000e-01

 Standard Electronic Orientation quadrupole field applied
 Nucleus-field energy     =     0.0000000003 hartrees
 ENuRep (before)= 94.3741591284
 ENucField = 0.0000000003
 ENuRep (after) = 94.3741591288
 Guess from superposition of atomic densities
 Warning:  Energy on first SCF cycle will be non-variational
 SAD guess density has 30.000000 electrons

 ==================================================
    GEN_SCFMAN: A general SCF calculation manager  
                                                   
    Authors:                                       
        -- Eric Jon Sundstrom 2008-2014            
        -- Paul Horn 2010-2015                     
        -- Yuezhi Mao 2012-                        
        -- Dmitri Zuev 2014                        
        -- Alec White 2015-                        
        -- David Stuck 2015                        
        -- Shaama M.S. 2015                        
        -- Shane Yost 2015-                         
        -- Joonho Lee 2016-                        
        -- David Small 2016-                       
        -- Daniel Levine 2016-                     
        -- Susi Lehtola 2017-                      
        -- Hugh Burton 2017-                       
 ==================================================
 Hartree-Fock
Finding J and K together
 Job number = 22, Threshold = 1.00E-11
Integral type ranges set in mkLRange.C for JobNum: 22  <1-6|1-6>
 MakeJK  time:  CPU       0.15 s  wall       0.16 s
 A restricted SCF calculation will be
 performed using DIIS
 SCF converges when DIIS error is below 1.0e-08
 ---------------------------------------
  Cycle       Energy         DIIS error
 ---------------------------------------
Finding J and K together
 Job number = 22, Threshold = 1.00E-11
Integral type ranges set in mkLRange.C for JobNum: 22  <1-6|1-6>
 MakeJK  time:  CPU       0.20 s  wall       0.21 s
    1    -151.5058113746      1.59e-01  
Finding J and K together
 Job number = 22, Threshold = 1.00E-11
Integral type ranges set in mkLRange.C for JobNum: 22  <1-6|1-6>
 MakeJK  time:  CPU       0.18 s  wall       0.20 s
    2    -152.6071516636      1.63e-02  
Finding J and K together
 Job number = 22, Threshold = 1.00E-11
Integral type ranges set in mkLRange.C for JobNum: 22  <1-6|1-6>
 MakeJK  time:  CPU       0.19 s  wall       0.20 s
    3    -152.6287217844      1.50e-02  
Finding J and K together
 Job number = 22, Threshold = 1.00E-11
Integral type ranges set in mkLRange.C for JobNum: 22  <1-6|1-6>
 MakeJK  time:  CPU       0.19 s  wall       0.20 s
    4    -152.6540394897      4.78e-03  
Finding J and K together
 Job number = 22, Threshold = 1.00E-11
Integral type ranges set in mkLRange.C for JobNum: 22  <1-6|1-6>
 MakeJK  time:  CPU       0.18 s  wall       0.19 s
    5    -152.6583377854      1.40e-03  
Finding J and K together
 Job number = 22, Threshold = 1.00E-11
Integral type ranges set in mkLRange.C for JobNum: 22  <1-6|1-6>
 MakeJK  time:  CPU       0.16 s  wall       0.17 s
    6    -152.6589956136      8.83e-04  
Finding J and K together
 Job number = 22, Threshold = 1.00E-11
Integral type ranges set in mkLRange.C for JobNum: 22  <1-6|1-6>
 MakeJK  time:  CPU       0.19 s  wall       0.20 s
    7    -152.6596465756      5.56e-04  
Finding J and K together
 Job number = 22, Threshold = 1.00E-11
Integral type ranges set in mkLRange.C for JobNum: 22  <1-6|1-6>
 MakeJK  time:  CPU       0.18 s  wall       0.19 s
    8    -152.6599893813      2.48e-04  
Finding J and K together
 Job number = 22, Threshold = 1.00E-11
Integral type ranges set in mkLRange.C for JobNum: 22  <1-6|1-6>
 MakeJK  time:  CPU       0.16 s  wall       0.16 s
    9    -152.6600615616      5.76e-05  
Finding J and K together
 Job number = 22, Threshold = 1.00E-11
Integral type ranges set in mkLRange.C for JobNum: 22  <1-6|1-6>
 MakeJK  time:  CPU       0.14 s  wall       0.14 s
   10    -152.6600642864      2.96e-05  
Finding J and K together
 Job number = 22, Threshold = 1.00E-11
Integral type ranges set in mkLRange.C for JobNum: 22  <1-6|1-6>
 MakeJK  time:  CPU       0.17 s  wall       0.17 s
   11    -152.6600647776      2.15e-05  
Finding J and K together
 Job number = 22, Threshold = 1.00E-11
Integral type ranges set in mkLRange.C for JobNum: 22  <1-6|1-6>
 MakeJK  time:  CPU       0.18 s  wall       0.18 s
   12    -152.6600650873      1.11e-05  
Finding J and K together
 Job number = 22, Threshold = 1.00E-11
Integral type ranges set in mkLRange.C for JobNum: 22  <1-6|1-6>
 MakeJK  time:  CPU       0.16 s  wall       0.16 s
   13    -152.6600652343      3.78e-06  
Finding J and K together
 Job number = 22, Threshold = 1.00E-11
Integral type ranges set in mkLRange.C for JobNum: 22  <1-6|1-6>
 MakeJK  time:  CPU       0.15 s  wall       0.15 s
   14    -152.6600652458      8.27e-07  
Finding J and K together
 Job number = 22, Threshold = 1.00E-11
Integral type ranges set in mkLRange.C for JobNum: 22  <1-6|1-6>
 MakeJK  time:  CPU       0.18 s  wall       0.19 s
   15    -152.6600652462      1.55e-07  
Finding J and K together
 Job number = 22, Threshold = 1.00E-11
Integral type ranges set in mkLRange.C for JobNum: 22  <1-6|1-6>
 MakeJK  time:  CPU       0.14 s  wall       0.15 s
   16    -152.6600652462      2.95e-08  
   17    -152.6600652462      7.46e-09  Convergence criterion met
 ---------------------------------------
 SCF time:   CPU 2.92s  wall 3.00s 
 Total energy in the final basis set =     -152.6600652462
Wall  1 = 3
Clock 1 = 2.9178979397
 ==================================================
                  Done GEN_SCFMAN                  
 ==================================================

Symmetry turned off temporarily

 --------------------------------------------------------------

                    Orbital Energies (a.u.)
 --------------------------------------------------------------

 Alpha MOs
 -- Occupied --
-11.032 -11.016 -11.010 -10.975  -0.978  -0.824  -0.748  -0.706
 -0.550  -0.521  -0.491  -0.460  -0.325  -0.313  -0.158
 -- Virtual --
  0.171   0.297   0.383   0.527   0.553   0.645   0.701   0.721
  0.808   0.852   0.935
 --------------------------------------------------------------

          Ground-State Mulliken Net Atomic Charges

     Atom                 Charge (a.u.)
  ----------------------------------------
      1 C                    -0.100553
      2 C                    -0.078835
      3 H                     0.024168
      4 H                     0.056359
      5 C                    -0.023243
      6 C                    -0.129047
      7 H                     0.039886
      8 H                     0.048743
      9 H                     0.096325
     10 H                     0.066199
  ----------------------------------------
  Sum of atomic charges =    -0.000000

 -----------------------------------------------------------------
                    Cartesian Multipole Moments
 -----------------------------------------------------------------
    Charge (ESU x 10^10)
                 0.0000
    Dipole Moment (Debye)
         X       0.4126      Y      -0.2269      Z      -0.0217
       Tot       0.4714
    Quadrupole Moments (Debye-Ang)
        XX     -20.2236     XY      -1.6844     YY     -22.6959
        XZ      -1.1548     YZ       2.8346     ZZ     -23.5933
    Octopole Moments (Debye-Ang^2)
       XXX    -242.3716    XXY      -3.1274    XYY     -83.8141
       YYY      16.3088    XXZ       7.5493    XYZ      11.7150
       YYZ      15.2489    XZZ     -85.7670    YZZ       0.7111
       ZZZ      50.0987
    Hexadecapole Moments (Debye-Ang^3)
      XXXX   -2140.3970   XXXY      76.3018   XXYY    -376.3866
      XYYY     117.7449   YYYY    -114.3510   XXXZ      87.8710
      XXYZ      48.4055   XYYZ      38.5477   YYYZ      -3.0261
      XXZZ    -384.0186   XYZZ      22.3464   YYZZ     -39.9320
      XZZZ     140.1433   YZZZ       0.4186   ZZZZ    -143.4804
 -----------------------------------------------------------------
drvman_main.C: 73: calling DrvMan  Calculating analytic gradient of the SCF energy
drvman.C : 218: Calculating analytic gradient of the SCF energy
drvman.C: 244: calling SCF_Grad for normal SCF gradient
 Job number = 111, Threshold = 1.00E-11
Integral type ranges set in mkLRange.C for JobNum: 11  <1-6|7-7>
Finding J and K together
 ML is being used
 Job number = 122, Threshold = 1.00E-11
Integral type ranges set in mkLRange.C for JobNum: 22  <1-6|1-6>
Total number of integrals generated =           69654
 MakeJK  time:  CPU       0.45 s  wall       0.46 s
 Gradient of SCF Energy
            1           2           3           4           5           6
    1  -0.0525123  -0.0699898   0.0161243   0.0719563   0.1361217  -0.1470602
    2  -0.0790345   0.2089431   0.0090746  -0.0323918  -0.1814599   0.1289927
    3  -0.0028637   0.1551242   0.0014668  -0.0609384  -0.0537539   0.0264016
            7           8           9          10
    1   0.0252761  -0.0010294   0.0175376   0.0035757
    2  -0.0141869   0.0445566  -0.0253520  -0.0591418
    3  -0.0110826   0.0190182  -0.0323114  -0.0410609
 Max gradient component =       2.089E-01
 RMS gradient           =       8.077E-02
drvman.C: 248: out of SCF_Grad for normal SCF gradient
 Gradient time:  CPU 0.47 s  wall 0.48 s
 ------------------------------------------------------------------------------
                     drvman        : Timing summary (seconds)
 ------------------------------------------------------------------------------
     job step          cpu (% of tot)      sys (% of tot)     wall (% of tot)
 ------------------------------------------------------------------------------
 ------------------------------------------------------------------------------
   Grand Totals     0.4680E+00          0.1000E-05          0.4767E+00
 ------------------------------------------------------------------------------
drvman_main.C: 77: out of DrvMan =======================================================
            AB INITIO MOLECULAR DYNAMICS
=======================================================
Created directory /home/jcartus/scratch/Butadien_26.mol.dir/AIMD
AIMD will take 400 BOMD steps Velocity Verlet integration
Time step = 20.00000 a.u. ( = 0.48378 fs)
Total simulation time requested = 193.511 fs
Integral threshold = 10**(-11)
SCF convergence threshold = 10**(-8)
Generating viewable xyz trajectory,
 file (in Angstroms) at AIMD/View.xyz
Choosing nuclear velocities from Maxwell-Boltzmann
Velocities sampled from Maxwell-Boltzmann at T = 400.0 K
sqrt(kT/m) and (vx,vy,vz) for each atom:
  1   2.4064e-04  -5.53e-05  -9.81e-05  -1.44e-04 
  2   2.4064e-04  -1.69e-04   3.07e-04  -7.12e-06 
  3   8.3036e-04  -2.78e-04   7.24e-04   1.30e-03 
  4   8.3036e-04  -2.07e-04   2.74e-04  -1.04e-04 
  5   2.4064e-04  -9.64e-05   1.52e-04   8.32e-05 
  6   2.4064e-04  -7.94e-05  -5.21e-05  -1.06e-04 
  7   8.3036e-04   1.33e-03   1.33e-06   8.91e-04 
  8   8.3036e-04   3.14e-04   1.62e-03  -6.96e-04 
  9   8.3036e-04  -6.19e-04   1.17e-03  -8.36e-04 
 10   8.3036e-04  -6.38e-04   7.44e-04   5.55e-04 
T(nuclear) = 0.01331066 a.u.
v(c.o.m.) = ( -9.0611e-05,   1.5326e-04,  -1.7994e-05)
T(c.o.m.) = 1.57749e-03 a.u.
kT/2 = 0.000633 a.u.
Tx   = 0.003059 a.u.
Ty   = 0.006160 a.u.
Tz   = 0.004092 a.u.
Mean velocities (a.u.):  -4.9978e-05   4.8471e-04   9.3616e-05
Removing c.o.m. velocity
T(nuclear) = 0.01107157 a.u.
v(c.o.m.) = (  1.5213e-20,  -9.0151e-21,   6.7613e-21)
T(c.o.m.) = 1.76560e-35 a.u.
kT   = 0.001267 a.u. = 0.79 kcal/mol
Tx   = 0.003988 a.u. = 2.50 kcal/mol
Ty   = 0.002772 a.u. = 1.74 kcal/mol
Tz   = 0.004312 a.u. = 2.71 kcal/mol
Initial velocities in m/s
  1     -3.1667e+01     -3.6558e+02     -2.9769e+02 
  2     -2.7952e+02      5.2050e+02      2.1598e+00 
  3      4.5473e+02     -2.1323e+02      3.0559e+03 
  4      6.1028e+02     -1.1994e+03     -1.5924e+01 
  5     -1.2158e+02      1.8234e+02      1.9986e+02 
  6     -8.4529e+01     -2.6498e+02     -2.1474e+02 
  7      3.9673e+03     -1.7951e+03      2.1614e+03 
  8      1.7492e+03      1.7530e+03     -1.3125e+03 
  9     -2.9031e+02      7.6540e+02     -1.6186e+03 
 10     -3.3181e+02     -1.7141e+02      1.4257e+03 
----------------------------------------------------------------------------
       Nuclear coordinates (Angst) and velocities (a.u.)
----------------------------------------------------------------------------
             x        y        z            v_x         v_y        v_z
----------------------------------------------------------------------------
1      C    5.3291  -1.0247  -0.2730    -1.4475e-05  -1.6711e-04  -1.3607e-04
2      C    4.2856  -0.0648  -0.1521    -1.2777e-04   2.3792e-04   9.8725e-07
3      H    6.2064  -0.8287   0.3817     2.0786e-04  -9.7466e-05   1.3969e-03
4      H    5.8196  -1.6547  -1.1949     2.7896e-04  -5.4823e-04  -7.2788e-06
5      C    3.2444  -0.6261  -1.1720    -5.5576e-05   8.3350e-05   9.1354e-05
6      C    1.9058   0.7667  -1.2090    -3.8638e-05  -1.2112e-04  -9.8158e-05
7      H    1.1357   0.3266  -1.8302     1.8135e-03  -8.2056e-04   9.8799e-04
8      H    1.7236   1.5444  -0.3946     7.9955e-04   8.0130e-04  -5.9994e-04
9      H    4.3862   0.8502   0.3404    -1.3270e-04   3.4987e-04  -7.3986e-04
10     H    3.4563  -1.4754  -1.9751    -1.5167e-04  -7.8352e-05   6.5168e-04
----------------------------------------------------------------------------
Write nuclear velocities every 1 time steps

TIME STEP #1 (t = 0.000 a.u. = 0.00000 fs)
--------------------------------------
 Instantaneous Temperature = 233.1 K
 ----------------------------------------------------------------
             Standard Nuclear Orientation (Angstroms)
    I     Atom           X                Y                Z
 ----------------------------------------------------------------
    1      C       5.3292308694    -1.0260662162    -0.2744262880
    2      C       4.2845463744    -0.0633328414    -0.1528400835
    3      H       6.2076809939    -0.8302643053     0.3964094146
    4      H       5.8183671253    -1.6586161778    -1.1914364890
    5      C       3.2431832206    -0.6243199102    -1.1707930709
    6      C       1.9061225846     0.7647940077    -1.2101666025
    7      H       1.1534167302     0.3187628217    -1.8191151680
    8      H       1.7321014005     1.5503337294    -0.4020150862
    9      H       4.3837652287     0.8553933157     0.3344810488
   10      H       3.4544588100    -1.4728421896    -1.9658675274
 ----------------------------------------------------------------
 Nuclear Repulsion Energy =    94.4463263835 hartrees
 There are       15 alpha and       15 beta electrons

                       Distance Matrix (Angstroms)
             C (  1)   C (  2)   H (  3)   H (  4)   C (  5)   C (  6)
   C (  2)  1.425835
   H (  3)  1.122512  2.142033
   H (  4)  1.216668  2.444630  1.832754
   C (  5)  2.305747  1.560568  3.359581  2.775206
   C (  6)  3.974979  2.731416  4.860936  4.602057  1.928450
   H (  7)  4.651027  3.567414  5.636879  5.105465  2.382614  1.065987
   H (  8)  4.426450  3.030014  5.131817  5.255294  2.757446  1.140379
   H (  9)  2.191931  1.044693  2.484340  3.272117  2.399235  2.921106
   H ( 10)  2.564245  2.441891  3.684222  2.494457  1.181851  2.824083
             H (  7)   H (  8)   H (  9)
   H (  8)  1.964641
   H (  9)  3.919324  2.838431
   H ( 10)  2.919962  3.814675  3.402337

 Applying Cartesian multipole field
    Component          Value
    ---------          -----
     (2,0,0)        1.00000E-12
     (0,2,0)        2.00000E-11
     (0,0,2)       -3.00000E-11
 Nucleus-field energy     =     0.0000000003 hartrees
 ENuRep (before)= 94.4463263835
 ENucField = 0.0000000003
 ENuRep (after) = 94.4463263838
 Job number = 2, Threshold = 1.00E-11
Integral type ranges set in mkLRange.C for JobNum: 2  <1-6|1-6>
Symmetry turned off temporarily
Symmetry turned back on
 Job number = 11, Threshold = 1.00E-11
Integral type ranges set in mkLRange.C for JobNum: 11  <1-6|7-7>
 Smallest overlap matrix eigenvalue = 2.27E-01
 Multipole matrices computed through 2nd order
 Guess from superposition of atomic densities
 Warning:  Energy on first SCF cycle will be non-variational
 SAD guess density has 30.000000 electrons
 SCF convergence criterion is 10**(-8)
 A restricted Hartree-Fock SCF calculation will be
 performed using Pulay DIIS extrapolation
 SCF converges when DIIS error is below 1.0E-08
Finding J and K together
 Job number = 22, Threshold = 1.00E-11
Integral type ranges set in mkLRange.C for JobNum: 22  <1-6|1-6>
 MakeJK  time:  CPU       0.12 s  wall       0.12 s
Fock build time:  0.12 s (CPU) 0.12 s (wall)
DIIS Errors:  Max 9.22E-01 RMS 1.59E-01

Current DIIS subspace size = 1
REM_GRID_RESTART_DIIS = 0

 ---------------------------------------
  Cycle       Energy         DIIS Error
 ---------------------------------------
    1    -151.5149754522      1.59E-01  00000
Finding J and K together
 Job number = 22, Threshold = 1.00E-11
Integral type ranges set in mkLRange.C for JobNum: 22  <1-6|1-6>
 MakeJK  time:  CPU       0.12 s  wall       0.12 s
Fock build time:  0.12 s (CPU) 0.12 s (wall)
DIIS Errors:  Max 1.02E-01 RMS 1.65E-02

Current DIIS subspace size = 2
REM_GRID_RESTART_DIIS = 0

    2    -152.6076150071      1.65E-02  00000
Finding J and K together
 Job number = 22, Threshold = 1.00E-11
Integral type ranges set in mkLRange.C for JobNum: 22  <1-6|1-6>
 MakeJK  time:  CPU       0.18 s  wall       0.18 s
Fock build time:  0.18 s (CPU) 0.18 s (wall)
DIIS Errors:  Max 1.14E-01 RMS 1.53E-02

Current DIIS subspace size = 3
REM_GRID_RESTART_DIIS = 0

    3    -152.6286549126      1.53E-02  00000
Finding J and K together
 Job number = 22, Threshold = 1.00E-11
Integral type ranges set in mkLRange.C for JobNum: 22  <1-6|1-6>
 MakeJK  time:  CPU       0.14 s  wall       0.15 s
Fock build time:  0.14 s (CPU) 0.15 s (wall)
DIIS Errors:  Max 4.05E-02 RMS 4.76E-03

Current DIIS subspace size = 4
REM_GRID_RESTART_DIIS = 0

    4    -152.6549014830      4.76E-03  00000
Finding J and K together
 Job number = 22, Threshold = 1.00E-11
Integral type ranges set in mkLRange.C for JobNum: 22  <1-6|1-6>
 MakeJK  time:  CPU       0.18 s  wall       0.18 s
Fock build time:  0.18 s (CPU) 0.19 s (wall)
DIIS Errors:  Max 9.58E-03 RMS 1.37E-03

Current DIIS subspace size = 5
REM_GRID_RESTART_DIIS = 0

    5    -152.6591360544      1.37E-03  00000
Finding J and K together
 Job number = 22, Threshold = 1.00E-11
Integral type ranges set in mkLRange.C for JobNum: 22  <1-6|1-6>
 MakeJK  time:  CPU       0.13 s  wall       0.13 s
Fock build time:  0.13 s (CPU) 0.13 s (wall)
DIIS Errors:  Max 7.18E-03 RMS 8.68E-04

Current DIIS subspace size = 6
REM_GRID_RESTART_DIIS = 0

    6    -152.6597713584      8.68E-04  00000
Finding J and K together
 Job number = 22, Threshold = 1.00E-11
Integral type ranges set in mkLRange.C for JobNum: 22  <1-6|1-6>
 MakeJK  time:  CPU       0.14 s  wall       0.14 s
Fock build time:  0.14 s (CPU) 0.14 s (wall)
DIIS Errors:  Max 4.33E-03 RMS 5.54E-04

Current DIIS subspace size = 7
REM_GRID_RESTART_DIIS = 0

    7    -152.6603869864      5.54E-04  00000
Finding J and K together
 Job number = 22, Threshold = 1.00E-11
Integral type ranges set in mkLRange.C for JobNum: 22  <1-6|1-6>
 MakeJK  time:  CPU       0.16 s  wall       0.16 s
Fock build time:  0.16 s (CPU) 0.16 s (wall)
DIIS Errors:  Max 1.88E-03 RMS 2.49E-04

Current DIIS subspace size = 8
REM_GRID_RESTART_DIIS = 0

    8    -152.6607277968      2.49E-04  00000
Finding J and K together
 Job number = 22, Threshold = 1.00E-11
Integral type ranges set in mkLRange.C for JobNum: 22  <1-6|1-6>
 MakeJK  time:  CPU       0.15 s  wall       0.15 s
Fock build time:  0.15 s (CPU) 0.15 s (wall)
DIIS Errors:  Max 2.74E-04 RMS 5.80E-05

Current DIIS subspace size = 9
REM_GRID_RESTART_DIIS = 0

    9    -152.6608019414      5.80E-05  00000
Finding J and K together
 Job number = 22, Threshold = 1.00E-11
Integral type ranges set in mkLRange.C for JobNum: 22  <1-6|1-6>
 MakeJK  time:  CPU       0.14 s  wall       0.14 s
Fock build time:  0.14 s (CPU) 0.14 s (wall)
DIIS Errors:  Max 1.88E-04 RMS 2.72E-05

Current DIIS subspace size = 10
REM_GRID_RESTART_DIIS = 0

   10    -152.6608047895      2.72E-05  00000
Finding J and K together
 Job number = 22, Threshold = 1.00E-11
Integral type ranges set in mkLRange.C for JobNum: 22  <1-6|1-6>
 MakeJK  time:  CPU       0.15 s  wall       0.15 s
Fock build time:  0.15 s (CPU) 0.15 s (wall)
DIIS Errors:  Max 1.56E-04 RMS 1.99E-05

Current DIIS subspace size = 11
REM_GRID_RESTART_DIIS = 0

   11    -152.6608052047      1.99E-05  00000
Finding J and K together
 Job number = 22, Threshold = 1.00E-11
Integral type ranges set in mkLRange.C for JobNum: 22  <1-6|1-6>
 MakeJK  time:  CPU       0.18 s  wall       0.18 s
Fock build time:  0.18 s (CPU) 0.18 s (wall)
DIIS Errors:  Max 8.86E-05 RMS 1.06E-05

Current DIIS subspace size = 12
REM_GRID_RESTART_DIIS = 0

   12    -152.6608054566      1.06E-05  00000
Finding J and K together
 Job number = 22, Threshold = 1.00E-11
Integral type ranges set in mkLRange.C for JobNum: 22  <1-6|1-6>
 MakeJK  time:  CPU       0.18 s  wall       0.18 s
Fock build time:  0.18 s (CPU) 0.18 s (wall)
DIIS Errors:  Max 2.65E-05 RMS 3.76E-06

Current DIIS subspace size = 13
REM_GRID_RESTART_DIIS = 0

   13    -152.6608055883      3.76E-06  00000
Finding J and K together
 Job number = 22, Threshold = 1.00E-11
Integral type ranges set in mkLRange.C for JobNum: 22  <1-6|1-6>
 MakeJK  time:  CPU       0.17 s  wall       0.17 s
Fock build time:  0.17 s (CPU) 0.17 s (wall)
DIIS Errors:  Max 5.56E-06 RMS 8.52E-07

Current DIIS subspace size = 14
REM_GRID_RESTART_DIIS = 0

   14    -152.6608056000      8.52E-07  00000
Finding J and K together
 Job number = 22, Threshold = 1.00E-11
Integral type ranges set in mkLRange.C for JobNum: 22  <1-6|1-6>
 MakeJK  time:  CPU       0.14 s  wall       0.15 s
Fock build time:  0.14 s (CPU) 0.15 s (wall)
DIIS Errors:  Max 9.72E-07 RMS 1.58E-07

Current DIIS subspace size = 15
REM_GRID_RESTART_DIIS = 0

   15    -152.6608056004      1.58E-07  00000
Finding J and K together
 Job number = 22, Threshold = 1.00E-11
Integral type ranges set in mkLRange.C for JobNum: 22  <1-6|1-6>
 MakeJK  time:  CPU       0.15 s  wall       0.15 s
Fock build time:  0.15 s (CPU) 0.15 s (wall)
DIIS Errors:  Max 1.42E-07 RMS 3.00E-08

Current DIIS subspace size = 15
REM_GRID_RESTART_DIIS = 0

   16    -152.6608056004      3.00E-08  00000
Finding J and K together
 Job number = 22, Threshold = 1.00E-11
Integral type ranges set in mkLRange.C for JobNum: 22  <1-6|1-6>
 MakeJK  time:  CPU       0.16 s  wall       0.17 s
Fock build time:  0.16 s (CPU) 0.17 s (wall)
DIIS Errors:  Max 3.75E-08 RMS 7.41E-09

Current DIIS subspace size = 15
REM_GRID_RESTART_DIIS = 0

   17    -152.6608056004      7.41E-09  00000 Convergence criterion met
 ---------------------------------------
 SCF time:  CPU 2.64 s  wall 2.65 s
 SCF   energy in the final basis set = -152.66080560
 Total energy in the final basis set = -152.66080560
drvman_main.C: 73: calling DrvMan  Calculating analytic gradient of the SCF energy
drvman.C : 218: Calculating analytic gradient of the SCF energy
drvman.C: 244: calling SCF_Grad for normal SCF gradient
 Job number = 111, Threshold = 1.00E-11
Integral type ranges set in mkLRange.C for JobNum: 11  <1-6|7-7>
 Warning:  Cost of integrals step H3 set to -1794063884
 Warning:  Retrieved cost of -1794063884 for integrals step H3
 Warning:  Retrieved cost of -1794063884 for integrals step H3
 Warning:  Retrieved cost of -1794063884 for integrals step H3
Finding J and K together
 ML is being used
 Job number = 122, Threshold = 1.00E-11
Integral type ranges set in mkLRange.C for JobNum: 22  <1-6|1-6>
 MakeJK  time:  CPU       0.45 s  wall       0.46 s
 Gradient of SCF Energy
            1           2           3           4           5           6
    1  -0.0554474  -0.0710026   0.0214615   0.0710415   0.1363489  -0.1596758
    2  -0.0824381   0.2102189   0.0105818  -0.0322500  -0.1863542   0.1253837
    3  -0.0109317   0.1550272   0.0076972  -0.0599663  -0.0549948   0.0170858
            7           8           9          10
    1   0.0374008  -0.0008180   0.0171392   0.0035518
    2  -0.0091212   0.0450673  -0.0246084  -0.0564798
    3  -0.0021346   0.0192878  -0.0321848  -0.0388859
 Max gradient component =       2.102E-01
 RMS gradient           =       8.205E-02
drvman.C: 248: out of SCF_Grad for normal SCF gradient
 Gradient time:  CPU 0.46 s  wall 0.47 s
 ------------------------------------------------------------------------------
                     drvman        : Timing summary (seconds)
 ------------------------------------------------------------------------------
     job step          cpu (% of tot)      sys (% of tot)     wall (% of tot)
 ------------------------------------------------------------------------------
 ------------------------------------------------------------------------------
   Grand Totals     0.4640E+00          0.0000E+00          0.4747E+00
 ------------------------------------------------------------------------------
drvman_main.C: 77: out of DrvMan  Time for this dynamics step: 3.1 s (CPU) 3.2 s (wall)

TIME STEP #2 (t = 20.000 a.u. = 0.48378 fs)
--------------------------------------
 Instantaneous Temperature = 248.9 K
 ----------------------------------------------------------------
             Standard Nuclear Orientation (Angstroms)
    I     Atom           X                Y                Z
 ----------------------------------------------------------------
    1      C       5.3298682776    -1.0266547178    -0.2757467950
    2      C       4.2842198078    -0.0638598730    -0.1550802926
    3      H       6.2064792781    -0.8330378055     0.4102219879
    4      H       5.8089891104    -1.6588366264    -1.1810938854
    5      C       3.2406170561    -0.6207565576    -1.1690339831
    6      C       1.9079702772     0.7616747359    -1.2114985367
    7      H       1.1668442763     0.3119465539    -1.8077743998
    8      H       1.7407170498     1.5510549771    -0.4116824452
    9      H       4.3793757415     0.8633919159     0.3322203107
   10      H       3.4522383925    -1.4637569925    -1.9521247680
 ----------------------------------------------------------------
 Nuclear Repulsion Energy =    94.6221164369 hartrees
 There are       15 alpha and       15 beta electrons

                       Distance Matrix (Angstroms)
             C (  1)   C (  2)   H (  3)   H (  4)   C (  5)   C (  6)
   C (  2)  1.426504
   H (  3)  1.129817  2.146225
   H (  4)  1.203688  2.433429  1.836363
   C (  5)  2.308178  1.557993  3.366816  2.770251
   C (  6)  3.972800  2.728386  4.863154  4.591051  1.920642
   H (  7)  4.633544  3.548332  5.623915  5.081951  2.361876  1.052173
   H (  8)  4.420981  3.023773  5.128592  5.238916  2.745915  1.136134
   H (  9)  2.201212  1.051814  2.494447  3.270405  2.398590  2.915692
   H ( 10)  2.554759  2.425134  3.682979  2.487332  1.169899  2.808173
             H (  7)   H (  8)   H (  9)
   H (  8)  1.952893
   H (  9)  3.899234  2.826445
   H ( 10)  2.897755  3.793594  3.390197

 Applying Cartesian multipole field
    Component          Value
    ---------          -----
     (2,0,0)        1.00000E-12
     (0,2,0)        2.00000E-11
     (0,0,2)       -3.00000E-11
 Nucleus-field energy     =     0.0000000003 hartrees
 ENuRep (before)= 94.6221164369
 ENucField = 0.0000000003
 ENuRep (after) = 94.6221164373
 Job number = 2, Threshold = 1.00E-11
Integral type ranges set in mkLRange.C for JobNum: 2  <1-6|1-6>
Symmetry turned off temporarily
Symmetry turned back on
 Job number = 11, Threshold = 1.00E-11
Integral type ranges set in mkLRange.C for JobNum: 11  <1-6|7-7>
 Smallest overlap matrix eigenvalue = 2.28E-01
 Multipole matrices computed through 2nd order
 Guess from superposition of atomic densities
 Warning:  Energy on first SCF cycle will be non-variational
 SAD guess density has 30.000000 electrons
 SCF convergence criterion is 10**(-8)
 A restricted Hartree-Fock SCF calculation will be
 performed using Pulay DIIS extrapolation
 SCF converges when DIIS error is below 1.0E-08
Finding J and K together
 Job number = 22, Threshold = 1.00E-11
Integral type ranges set in mkLRange.C for JobNum: 22  <1-6|1-6>
 MakeJK  time:  CPU       0.14 s  wall       0.14 s
Fock build time:  0.14 s (CPU) 0.14 s (wall)
DIIS Errors:  Max 9.16E-01 RMS 1.60E-01

Current DIIS subspace size = 1
REM_GRID_RESTART_DIIS = 0

 ---------------------------------------
  Cycle       Energy         DIIS Error
 ---------------------------------------
    1    -151.5390540193      1.60E-01  00000
Finding J and K together
 Job number = 22, Threshold = 1.00E-11
Integral type ranges set in mkLRange.C for JobNum: 22  <1-6|1-6>
 MakeJK  time:  CPU       0.15 s  wall       0.15 s
Fock build time:  0.15 s (CPU) 0.15 s (wall)
DIIS Errors:  Max 1.01E-01 RMS 1.65E-02

Current DIIS subspace size = 2
REM_GRID_RESTART_DIIS = 0

    2    -152.6158591228      1.65E-02  00000
Finding J and K together
 Job number = 22, Threshold = 1.00E-11
Integral type ranges set in mkLRange.C for JobNum: 22  <1-6|1-6>
 MakeJK  time:  CPU       0.18 s  wall       0.18 s
Fock build time:  0.18 s (CPU) 0.18 s (wall)
DIIS Errors:  Max 1.13E-01 RMS 1.52E-02

Current DIIS subspace size = 3
REM_GRID_RESTART_DIIS = 0

    3    -152.6370022264      1.52E-02  00000
Finding J and K together
 Job number = 22, Threshold = 1.00E-11
Integral type ranges set in mkLRange.C for JobNum: 22  <1-6|1-6>
 MakeJK  time:  CPU       0.18 s  wall       0.18 s
Fock build time:  0.18 s (CPU) 0.18 s (wall)
DIIS Errors:  Max 3.99E-02 RMS 4.74E-03

Current DIIS subspace size = 4
REM_GRID_RESTART_DIIS = 0

    4    -152.6628731929      4.74E-03  00000
Finding J and K together
 Job number = 22, Threshold = 1.00E-11
Integral type ranges set in mkLRange.C for JobNum: 22  <1-6|1-6>
 MakeJK  time:  CPU       0.17 s  wall       0.18 s
Fock build time:  0.17 s (CPU) 0.18 s (wall)
DIIS Errors:  Max 9.27E-03 RMS 1.32E-03

Current DIIS subspace size = 5
REM_GRID_RESTART_DIIS = 0

    5    -152.6669987987      1.32E-03  00000
Finding J and K together
 Job number = 22, Threshold = 1.00E-11
Integral type ranges set in mkLRange.C for JobNum: 22  <1-6|1-6>
 MakeJK  time:  CPU       0.15 s  wall       0.15 s
Fock build time:  0.15 s (CPU) 0.15 s (wall)
DIIS Errors:  Max 6.91E-03 RMS 8.35E-04

Current DIIS subspace size = 6
REM_GRID_RESTART_DIIS = 0

    6    -152.6675862527      8.35E-04  00000
Finding J and K together
 Job number = 22, Threshold = 1.00E-11
Integral type ranges set in mkLRange.C for JobNum: 22  <1-6|1-6>
 MakeJK  time:  CPU       0.18 s  wall       0.18 s
Fock build time:  0.18 s (CPU) 0.18 s (wall)
DIIS Errors:  Max 4.24E-03 RMS 5.35E-04

Current DIIS subspace size = 7
REM_GRID_RESTART_DIIS = 0

    7    -152.6681412769      5.35E-04  00000
Finding J and K together
 Job number = 22, Threshold = 1.00E-11
Integral type ranges set in mkLRange.C for JobNum: 22  <1-6|1-6>
 MakeJK  time:  CPU       0.18 s  wall       0.18 s
Fock build time:  0.18 s (CPU) 0.18 s (wall)
DIIS Errors:  Max 1.81E-03 RMS 2.42E-04

Current DIIS subspace size = 8
REM_GRID_RESTART_DIIS = 0

    8    -152.6684532114      2.42E-04  00000
Finding J and K together
 Job number = 22, Threshold = 1.00E-11
Integral type ranges set in mkLRange.C for JobNum: 22  <1-6|1-6>
 MakeJK  time:  CPU       0.19 s  wall       0.19 s
Fock build time:  0.19 s (CPU) 0.19 s (wall)
DIIS Errors:  Max 2.78E-04 RMS 5.66E-05

Current DIIS subspace size = 9
REM_GRID_RESTART_DIIS = 0

    9    -152.6685234273      5.66E-05  00000
Finding J and K together
 Job number = 22, Threshold = 1.00E-11
Integral type ranges set in mkLRange.C for JobNum: 22  <1-6|1-6>
 MakeJK  time:  CPU       0.18 s  wall       0.18 s
Fock build time:  0.18 s (CPU) 0.18 s (wall)
DIIS Errors:  Max 1.63E-04 RMS 2.41E-05

Current DIIS subspace size = 10
REM_GRID_RESTART_DIIS = 0

   10    -152.6685261859      2.41E-05  00000
Finding J and K together
 Job number = 22, Threshold = 1.00E-11
Integral type ranges set in mkLRange.C for JobNum: 22  <1-6|1-6>
 MakeJK  time:  CPU       0.18 s  wall       0.18 s
Fock build time:  0.18 s (CPU) 0.18 s (wall)
DIIS Errors:  Max 1.37E-04 RMS 1.75E-05

Current DIIS subspace size = 11
REM_GRID_RESTART_DIIS = 0

   11    -152.6685265067      1.75E-05  00000
Finding J and K together
 Job number = 22, Threshold = 1.00E-11
Integral type ranges set in mkLRange.C for JobNum: 22  <1-6|1-6>
 MakeJK  time:  CPU       0.14 s  wall       0.14 s
Fock build time:  0.14 s (CPU) 0.14 s (wall)
DIIS Errors:  Max 7.95E-05 RMS 9.48E-06

Current DIIS subspace size = 12
REM_GRID_RESTART_DIIS = 0

   12    -152.6685266890      9.48E-06  00000
Finding J and K together
 Job number = 22, Threshold = 1.00E-11
Integral type ranges set in mkLRange.C for JobNum: 22  <1-6|1-6>
 MakeJK  time:  CPU       0.12 s  wall       0.12 s
Fock build time:  0.12 s (CPU) 0.12 s (wall)
DIIS Errors:  Max 2.49E-05 RMS 3.45E-06

Current DIIS subspace size = 13
REM_GRID_RESTART_DIIS = 0

   13    -152.6685267892      3.45E-06  00000
Finding J and K together
 Job number = 22, Threshold = 1.00E-11
Integral type ranges set in mkLRange.C for JobNum: 22  <1-6|1-6>
 MakeJK  time:  CPU       0.12 s  wall       0.12 s
Fock build time:  0.12 s (CPU) 0.12 s (wall)
DIIS Errors:  Max 5.12E-06 RMS 7.99E-07

Current DIIS subspace size = 14
REM_GRID_RESTART_DIIS = 0

   14    -152.6685267989      7.99E-07  00000
Finding J and K together
 Job number = 22, Threshold = 1.00E-11
Integral type ranges set in mkLRange.C for JobNum: 22  <1-6|1-6>
 MakeJK  time:  CPU       0.12 s  wall       0.12 s
Fock build time:  0.12 s (CPU) 0.12 s (wall)
DIIS Errors:  Max 8.80E-07 RMS 1.42E-07

Current DIIS subspace size = 15
REM_GRID_RESTART_DIIS = 0

   15    -152.6685267992      1.42E-07  00000
Finding J and K together
 Job number = 22, Threshold = 1.00E-11
Integral type ranges set in mkLRange.C for JobNum: 22  <1-6|1-6>
 MakeJK  time:  CPU       0.12 s  wall       0.12 s
Fock build time:  0.12 s (CPU) 0.12 s (wall)
DIIS Errors:  Max 1.24E-07 RMS 2.71E-08

Current DIIS subspace size = 15
REM_GRID_RESTART_DIIS = 0

   16    -152.6685267992      2.71E-08  00000
Finding J and K together
 Job number = 22, Threshold = 1.00E-11
Integral type ranges set in mkLRange.C for JobNum: 22  <1-6|1-6>
 MakeJK  time:  CPU       0.12 s  wall       0.12 s
Fock build time:  0.12 s (CPU) 0.12 s (wall)
DIIS Errors:  Max 3.13E-08 RMS 6.44E-09

Current DIIS subspace size = 15
REM_GRID_RESTART_DIIS = 0

   17    -152.6685267992      6.44E-09  00000 Convergence criterion met
 ---------------------------------------
 SCF time:  CPU 2.65 s  wall 2.67 s
 SCF   energy in the final basis set = -152.66852680
 Total energy in the final basis set = -152.66852680
drvman_main.C: 73: calling DrvMan  Calculating analytic gradient of the SCF energy
drvman.C : 218: Calculating analytic gradient of the SCF energy
drvman.C: 244: calling SCF_Grad for normal SCF gradient
 Job number = 111, Threshold = 1.00E-11
Integral type ranges set in mkLRange.C for JobNum: 11  <1-6|7-7>
Finding J and K together
 ML is being used
 Job number = 122, Threshold = 1.00E-11
Integral type ranges set in mkLRange.C for JobNum: 22  <1-6|1-6>
 MakeJK  time:  CPU       0.40 s  wall       0.42 s
 Gradient of SCF Energy
            1           2           3           4           5           6
    1  -0.0547500  -0.0713078   0.0247622   0.0679421   0.1369156  -0.1710156
    2  -0.0862891   0.2029365   0.0113758  -0.0296323  -0.1939171   0.1253043
    3  -0.0203089   0.1499421   0.0126787  -0.0556117  -0.0574792   0.0100990
            7           8           9          10
    1   0.0475006  -0.0007499   0.0171354   0.0035673
    2  -0.0044026   0.0433696  -0.0175543  -0.0511910
    3   0.0060331   0.0176834  -0.0287200  -0.0343164
 Max gradient component =       2.029E-01
 RMS gradient           =       8.237E-02
drvman.C: 248: out of SCF_Grad for normal SCF gradient
 Gradient time:  CPU 0.42 s  wall 0.44 s
 ------------------------------------------------------------------------------
                     drvman        : Timing summary (seconds)
 ------------------------------------------------------------------------------
     job step          cpu (% of tot)      sys (% of tot)     wall (% of tot)
 ------------------------------------------------------------------------------
 ------------------------------------------------------------------------------
   Grand Totals     0.4160E+00          0.1000E-05          0.4359E+00
 ------------------------------------------------------------------------------
drvman_main.C: 77: out of DrvMan  Time for this dynamics step: 3.1 s (CPU) 3.2 s (wall)

TIME STEP #3 (t = 40.000 a.u. = 0.96755 fs)
--------------------------------------
 Instantaneous Temperature = 410.7 K
 ----------------------------------------------------------------
             Standard Nuclear Orientation (Angstroms)
    I     Atom           X                Y                Z
 ----------------------------------------------------------------
    1      C       5.3310354761    -1.0264082405    -0.2768707819
    2      C       4.2845832534    -0.0663506268    -0.1587714214
    3      H       6.2024245576    -0.8371219881     0.4225737671
    4      H       5.7917830643    -1.6556429547    -1.1643439059
    5      C       3.2367260231    -0.6153167596    -1.1667186954
    6      C       1.9114728074     0.7573429532    -1.2129281943
    7      H       1.1747989858     0.3056375360    -1.7971287450
    8      H       1.7494190940     1.5467793366    -0.4233872185
    9      H       4.3730119753     0.8734130577     0.3332685807
   10      H       3.4496069591    -1.4487737642    -1.9344281972
 ----------------------------------------------------------------
 Nuclear Repulsion Energy =    94.8989307427 hartrees
 There are       15 alpha and       15 beta electrons

                       Distance Matrix (Angstroms)
             C (  1)   C (  2)   H (  3)   H (  4)   C (  5)   C (  6)
   C (  2)  1.425033
   H (  3)  1.133301  2.147130
   H (  4)  1.181454  2.410120  1.832187
   C (  5)  2.312349  1.554132  3.372005  2.758732
   C (  6)  3.968801  2.724219  4.861013  4.569646  1.908567
   H (  7)  4.621670  3.534593  5.613377  5.056044  2.344593  1.043080
   H (  8)  4.412566  3.016499  5.121318  5.210109  2.727505  1.128205
   H (  9)  2.213459  1.064462  2.506124  3.263722  2.399463  2.909187
   H ( 10)  2.542767  2.400258  3.675266  2.474189  1.152973  2.784487
             H (  7)   H (  8)   H (  9)
   H (  8)  1.938501
   H (  9)  3.884524  2.812328
   H ( 10)  2.876032  3.761279  3.374563

 Applying Cartesian multipole field
    Component          Value
    ---------          -----
     (2,0,0)        1.00000E-12
     (0,2,0)        2.00000E-11
     (0,0,2)       -3.00000E-11
 Nucleus-field energy     =     0.0000000003 hartrees
 ENuRep (before)= 94.8989307427
 ENucField = 0.0000000003
 ENuRep (after) = 94.8989307430
 Job number = 2, Threshold = 1.00E-11
Integral type ranges set in mkLRange.C for JobNum: 2  <1-6|1-6>
Symmetry turned off temporarily
Symmetry turned back on
 Job number = 11, Threshold = 1.00E-11
Integral type ranges set in mkLRange.C for JobNum: 11  <1-6|7-7>
 Smallest overlap matrix eigenvalue = 2.28E-01
 Multipole matrices computed through 2nd order
 Guess from superposition of atomic densities
 Warning:  Energy on first SCF cycle will be non-variational
 SAD guess density has 30.000000 electrons
 SCF convergence criterion is 10**(-8)
 A restricted Hartree-Fock SCF calculation will be
 performed using Pulay DIIS extrapolation
 SCF converges when DIIS error is below 1.0E-08
Finding J and K together
 Job number = 22, Threshold = 1.00E-11
Integral type ranges set in mkLRange.C for JobNum: 22  <1-6|1-6>
 MakeJK  time:  CPU       0.15 s  wall       0.16 s
Fock build time:  0.15 s (CPU) 0.16 s (wall)
DIIS Errors:  Max 9.17E-01 RMS 1.61E-01

Current DIIS subspace size = 1
REM_GRID_RESTART_DIIS = 0

 ---------------------------------------
  Cycle       Energy         DIIS Error
 ---------------------------------------
    1    -151.5775426571      1.61E-01  00000
Finding J and K together
 Job number = 22, Threshold = 1.00E-11
Integral type ranges set in mkLRange.C for JobNum: 22  <1-6|1-6>
 MakeJK  time:  CPU       0.19 s  wall       0.20 s
Fock build time:  0.19 s (CPU) 0.20 s (wall)
DIIS Errors:  Max 9.82E-02 RMS 1.63E-02

Current DIIS subspace size = 2
REM_GRID_RESTART_DIIS = 0

    2    -152.6314082550      1.63E-02  00000
Finding J and K together
 Job number = 22, Threshold = 1.00E-11
Integral type ranges set in mkLRange.C for JobNum: 22  <1-6|1-6>
 MakeJK  time:  CPU       0.19 s  wall       0.19 s
Fock build time:  0.19 s (CPU) 0.19 s (wall)
DIIS Errors:  Max 1.09E-01 RMS 1.47E-02

Current DIIS subspace size = 3
REM_GRID_RESTART_DIIS = 0

    3    -152.6533844299      1.47E-02  00000
Finding J and K together
 Job number = 22, Threshold = 1.00E-11
Integral type ranges set in mkLRange.C for JobNum: 22  <1-6|1-6>
 MakeJK  time:  CPU       0.18 s  wall       0.18 s
Fock build time:  0.18 s (CPU) 0.18 s (wall)
DIIS Errors:  Max 3.95E-02 RMS 4.74E-03

Current DIIS subspace size = 4
REM_GRID_RESTART_DIIS = 0

    4    -152.6773008080      4.74E-03  00000
Finding J and K together
 Job number = 22, Threshold = 1.00E-11
Integral type ranges set in mkLRange.C for JobNum: 22  <1-6|1-6>
 MakeJK  time:  CPU       0.18 s  wall       0.19 s
Fock build time:  0.18 s (CPU) 0.19 s (wall)
DIIS Errors:  Max 8.67E-03 RMS 1.24E-03

Current DIIS subspace size = 5
REM_GRID_RESTART_DIIS = 0

    5    -152.6812874693      1.24E-03  00000
Finding J and K together
 Job number = 22, Threshold = 1.00E-11
Integral type ranges set in mkLRange.C for JobNum: 22  <1-6|1-6>
 MakeJK  time:  CPU       0.13 s  wall       0.13 s
Fock build time:  0.13 s (CPU) 0.13 s (wall)
DIIS Errors:  Max 6.45E-03 RMS 7.83E-04

Current DIIS subspace size = 6
REM_GRID_RESTART_DIIS = 0

    6    -152.6818049736      7.83E-04  00000
Finding J and K together
 Job number = 22, Threshold = 1.00E-11
Integral type ranges set in mkLRange.C for JobNum: 22  <1-6|1-6>
 MakeJK  time:  CPU       0.12 s  wall       0.13 s
Fock build time:  0.12 s (CPU) 0.13 s (wall)
DIIS Errors:  Max 3.96E-03 RMS 4.98E-04

Current DIIS subspace size = 7
REM_GRID_RESTART_DIIS = 0

    7    -152.6822796565      4.98E-04  00000
Finding J and K together
 Job number = 22, Threshold = 1.00E-11
Integral type ranges set in mkLRange.C for JobNum: 22  <1-6|1-6>
 MakeJK  time:  CPU       0.18 s  wall       0.18 s
Fock build time:  0.18 s (CPU) 0.18 s (wall)
DIIS Errors:  Max 1.66E-03 RMS 2.27E-04

Current DIIS subspace size = 8
REM_GRID_RESTART_DIIS = 0

    8    -152.6825406387      2.27E-04  00000
Finding J and K together
 Job number = 22, Threshold = 1.00E-11
Integral type ranges set in mkLRange.C for JobNum: 22  <1-6|1-6>
 MakeJK  time:  CPU       0.13 s  wall       0.13 s
Fock build time:  0.13 s (CPU) 0.13 s (wall)
DIIS Errors:  Max 2.70E-04 RMS 5.32E-05

Current DIIS subspace size = 9
REM_GRID_RESTART_DIIS = 0

    9    -152.6826015275      5.32E-05  00000
Finding J and K together
 Job number = 22, Threshold = 1.00E-11
Integral type ranges set in mkLRange.C for JobNum: 22  <1-6|1-6>
 MakeJK  time:  CPU       0.12 s  wall       0.12 s
Fock build time:  0.12 s (CPU) 0.12 s (wall)
DIIS Errors:  Max 1.34E-04 RMS 2.06E-05

Current DIIS subspace size = 10
REM_GRID_RESTART_DIIS = 0

   10    -152.6826039828      2.06E-05  00000
Finding J and K together
 Job number = 22, Threshold = 1.00E-11
Integral type ranges set in mkLRange.C for JobNum: 22  <1-6|1-6>
 MakeJK  time:  CPU       0.16 s  wall       0.16 s
Fock build time:  0.16 s (CPU) 0.16 s (wall)
DIIS Errors:  Max 1.14E-04 RMS 1.45E-05

Current DIIS subspace size = 11
REM_GRID_RESTART_DIIS = 0

   11    -152.6826042094      1.45E-05  00000
Finding J and K together
 Job number = 22, Threshold = 1.00E-11
Integral type ranges set in mkLRange.C for JobNum: 22  <1-6|1-6>
 MakeJK  time:  CPU       0.15 s  wall       0.15 s
Fock build time:  0.15 s (CPU) 0.15 s (wall)
DIIS Errors:  Max 6.64E-05 RMS 7.88E-06

Current DIIS subspace size = 12
REM_GRID_RESTART_DIIS = 0

   12    -152.6826043266      7.88E-06  00000
Finding J and K together
 Job number = 22, Threshold = 1.00E-11
Integral type ranges set in mkLRange.C for JobNum: 22  <1-6|1-6>
 MakeJK  time:  CPU       0.16 s  wall       0.16 s
Fock build time:  0.16 s (CPU) 0.16 s (wall)
DIIS Errors:  Max 2.13E-05 RMS 2.92E-06

Current DIIS subspace size = 13
REM_GRID_RESTART_DIIS = 0

   13    -152.6826043912      2.92E-06  00000
Finding J and K together
 Job number = 22, Threshold = 1.00E-11
Integral type ranges set in mkLRange.C for JobNum: 22  <1-6|1-6>
 MakeJK  time:  CPU       0.18 s  wall       0.18 s
Fock build time:  0.18 s (CPU) 0.18 s (wall)
DIIS Errors:  Max 4.30E-06 RMS 6.84E-07

Current DIIS subspace size = 14
REM_GRID_RESTART_DIIS = 0

   14    -152.6826043978      6.84E-07  00000
Finding J and K together
 Job number = 22, Threshold = 1.00E-11
Integral type ranges set in mkLRange.C for JobNum: 22  <1-6|1-6>
 MakeJK  time:  CPU       0.18 s  wall       0.18 s
Fock build time:  0.18 s (CPU) 0.18 s (wall)
DIIS Errors:  Max 7.07E-07 RMS 1.13E-07

Current DIIS subspace size = 15
REM_GRID_RESTART_DIIS = 0

   15    -152.6826043980      1.13E-07  00000
Finding J and K together
 Job number = 22, Threshold = 1.00E-11
Integral type ranges set in mkLRange.C for JobNum: 22  <1-6|1-6>
 MakeJK  time:  CPU       0.18 s  wall       0.18 s
Fock build time:  0.18 s (CPU) 0.18 s (wall)
DIIS Errors:  Max 9.84E-08 RMS 2.16E-08

Current DIIS subspace size = 15
REM_GRID_RESTART_DIIS = 0

   16    -152.6826043980      2.16E-08  00000
Finding J and K together
 Job number = 22, Threshold = 1.00E-11
Integral type ranges set in mkLRange.C for JobNum: 22  <1-6|1-6>
 MakeJK  time:  CPU       0.15 s  wall       0.15 s
Fock build time:  0.15 s (CPU) 0.15 s (wall)
DIIS Errors:  Max 2.30E-08 RMS 4.91E-09

Current DIIS subspace size = 15
REM_GRID_RESTART_DIIS = 0

   17    -152.6826043980      4.91E-09  00000 Convergence criterion met
 ---------------------------------------
 SCF time:  CPU 2.76 s  wall 2.79 s
 SCF   energy in the final basis set = -152.68260440
 Total energy in the final basis set = -152.68260440
drvman_main.C: 73: calling DrvMan  Calculating analytic gradient of the SCF energy
drvman.C : 218: Calculating analytic gradient of the SCF energy
drvman.C: 244: calling SCF_Grad for normal SCF gradient
 Job number = 111, Threshold = 1.00E-11
Integral type ranges set in mkLRange.C for JobNum: 11  <1-6|7-7>
Finding J and K together
 ML is being used
 Job number = 122, Threshold = 1.00E-11
Integral type ranges set in mkLRange.C for JobNum: 22  <1-6|1-6>
 MakeJK  time:  CPU       0.43 s  wall       0.47 s
 Gradient of SCF Energy
            1           2           3           4           5           6
    1  -0.0500744  -0.0707168   0.0259041   0.0625017   0.1378386  -0.1795371
    2  -0.0909466   0.1885282   0.0114288  -0.0241646  -0.2040091   0.1298768
    3  -0.0311748   0.1406632   0.0162108  -0.0474797  -0.0612457   0.0068325
            7           8           9          10
    1   0.0540365  -0.0007792   0.0172479   0.0035788
    2  -0.0011617   0.0393492  -0.0056815  -0.0432195
    3   0.0120498   0.0141671  -0.0227330  -0.0272903
 Max gradient component =       2.040E-01
 RMS gradient           =       8.200E-02
drvman.C: 248: out of SCF_Grad for normal SCF gradient
 Gradient time:  CPU 0.45 s  wall 0.50 s
 ------------------------------------------------------------------------------
                     drvman        : Timing summary (seconds)
 ------------------------------------------------------------------------------
     job step          cpu (% of tot)      sys (% of tot)     wall (% of tot)
 ------------------------------------------------------------------------------
 ------------------------------------------------------------------------------
   Grand Totals     0.4480E+00          0.3000E-05          0.4951E+00
 ------------------------------------------------------------------------------
drvman_main.C: 77: out of DrvMan  Time for this dynamics step: 3.2 s (CPU) 3.3 s (wall)

TIME STEP #4 (t = 60.000 a.u. = 1.45133 fs)
--------------------------------------
 Instantaneous Temperature = 705.1 K
 ----------------------------------------------------------------
             Standard Nuclear Orientation (Angstroms)
    I     Atom           X                Y                Z
 ----------------------------------------------------------------
    1      C       5.3326872215    -1.0252817152    -0.2776931047
    2      C       4.2856309923    -0.0706656801    -0.1638236824
    3      H       6.1953852674    -0.8425229577     0.4330577965
    4      H       5.7673758082    -1.6496651322    -1.1421234990
    5      C       3.2315011901    -0.6079028607    -1.1638107619
    6      C       1.9167126339     0.7517544138    -1.2144239669
    7      H       1.1765278152     0.2994623705    -1.7878714229
    8      H       1.7582109182     1.5379700248    -0.4367242735
    9      H       4.3646609730     0.8840888007     0.3369360609
   10      H       3.4465631900    -1.4288109475    -1.9135873387
 ----------------------------------------------------------------
 Nuclear Repulsion Energy =    95.2740263326 hartrees
 There are       15 alpha and       15 beta electrons

                       Distance Matrix (Angstroms)
             C (  1)   C (  2)   H (  3)   H (  4)   C (  5)   C (  6)
   C (  2)  1.421473
   H (  3)  1.132614  2.144573
   H (  4)  1.151542  2.376106  1.820952
   C (  5)  2.318274  1.549125  3.374855  2.741605
   C (  6)  3.962853  2.718807  4.854169  4.538684  1.892062
   H (  7)  4.616194  3.527187  5.605853  5.029113  2.331454  1.039848
   H (  8)  4.401412  3.008328  5.109969  5.170301  2.702593  1.117173
   H (  9)  2.227227  1.081001  2.518329  3.251943  2.400486  2.901152
   H ( 10)  2.529120  2.368600  3.661489  2.455627  1.132390  2.753931
             H (  7)   H (  8)   H (  9)
   H (  8)  1.922981
   H (  9)  3.875666  2.796371
   H ( 10)  2.855835  3.719334  3.355185

 Applying Cartesian multipole field
    Component          Value
    ---------          -----
     (2,0,0)        1.00000E-12
     (0,2,0)        2.00000E-11
     (0,0,2)       -3.00000E-11
 Nucleus-field energy     =     0.0000000004 hartrees
 ENuRep (before)= 95.2740263326
 ENucField = 0.0000000004
 ENuRep (after) = 95.2740263330
 Job number = 2, Threshold = 1.00E-11
Integral type ranges set in mkLRange.C for JobNum: 2  <1-6|1-6>
Symmetry turned off temporarily
Symmetry turned back on
 Job number = 11, Threshold = 1.00E-11
Integral type ranges set in mkLRange.C for JobNum: 11  <1-6|7-7>
 Smallest overlap matrix eigenvalue = 2.27E-01
 Multipole matrices computed through 2nd order
 Guess from superposition of atomic densities
 Warning:  Energy on first SCF cycle will be non-variational
 SAD guess density has 30.000000 electrons
 SCF convergence criterion is 10**(-8)
 A restricted Hartree-Fock SCF calculation will be
 performed using Pulay DIIS extrapolation
 SCF converges when DIIS error is below 1.0E-08
Finding J and K together
 Job number = 22, Threshold = 1.00E-11
Integral type ranges set in mkLRange.C for JobNum: 22  <1-6|1-6>
 MakeJK  time:  CPU       0.14 s  wall       0.15 s
Fock build time:  0.14 s (CPU) 0.15 s (wall)
DIIS Errors:  Max 9.21E-01 RMS 1.63E-01

Current DIIS subspace size = 1
REM_GRID_RESTART_DIIS = 0

 ---------------------------------------
  Cycle       Energy         DIIS Error
 ---------------------------------------
    1    -151.6299632917      1.63E-01  00000
Finding J and K together
 Job number = 22, Threshold = 1.00E-11
Integral type ranges set in mkLRange.C for JobNum: 22  <1-6|1-6>
 MakeJK  time:  CPU       0.18 s  wall       0.19 s
Fock build time:  0.18 s (CPU) 0.19 s (wall)
DIIS Errors:  Max 9.32E-02 RMS 1.60E-02

Current DIIS subspace size = 2
REM_GRID_RESTART_DIIS = 0

    2    -152.6528796893      1.60E-02  00000
Finding J and K together
 Job number = 22, Threshold = 1.00E-11
Integral type ranges set in mkLRange.C for JobNum: 22  <1-6|1-6>
 MakeJK  time:  CPU       0.18 s  wall       0.18 s
Fock build time:  0.18 s (CPU) 0.18 s (wall)
DIIS Errors:  Max 1.01E-01 RMS 1.37E-02

Current DIIS subspace size = 3
REM_GRID_RESTART_DIIS = 0

    3    -152.6762858542      1.37E-02  00000
Finding J and K together
 Job number = 22, Threshold = 1.00E-11
Integral type ranges set in mkLRange.C for JobNum: 22  <1-6|1-6>
 MakeJK  time:  CPU       0.19 s  wall       0.19 s
Fock build time:  0.19 s (CPU) 0.19 s (wall)
DIIS Errors:  Max 3.94E-02 RMS 4.76E-03

Current DIIS subspace size = 4
REM_GRID_RESTART_DIIS = 0

    4    -152.6967512867      4.76E-03  00000
Finding J and K together
 Job number = 22, Threshold = 1.00E-11
Integral type ranges set in mkLRange.C for JobNum: 22  <1-6|1-6>
 MakeJK  time:  CPU       0.19 s  wall       0.20 s
Fock build time:  0.19 s (CPU) 0.20 s (wall)
DIIS Errors:  Max 7.80E-03 RMS 1.14E-03

Current DIIS subspace size = 5
REM_GRID_RESTART_DIIS = 0

    5    -152.7005862137      1.14E-03  00000
Finding J and K together
 Job number = 22, Threshold = 1.00E-11
Integral type ranges set in mkLRange.C for JobNum: 22  <1-6|1-6>
 MakeJK  time:  CPU       0.18 s  wall       0.18 s
Fock build time:  0.18 s (CPU) 0.18 s (wall)
DIIS Errors:  Max 5.83E-03 RMS 7.15E-04

Current DIIS subspace size = 6
REM_GRID_RESTART_DIIS = 0

    6    -152.7010181819      7.15E-04  00000
Finding J and K together
 Job number = 22, Threshold = 1.00E-11
Integral type ranges set in mkLRange.C for JobNum: 22  <1-6|1-6>
 MakeJK  time:  CPU       0.18 s  wall       0.18 s
Fock build time:  0.18 s (CPU) 0.18 s (wall)
DIIS Errors:  Max 3.53E-03 RMS 4.45E-04

Current DIIS subspace size = 7
REM_GRID_RESTART_DIIS = 0

    7    -152.7014004843      4.45E-04  00000
Finding J and K together
 Job number = 22, Threshold = 1.00E-11
Integral type ranges set in mkLRange.C for JobNum: 22  <1-6|1-6>
 MakeJK  time:  CPU       0.18 s  wall       0.18 s
Fock build time:  0.18 s (CPU) 0.18 s (wall)
DIIS Errors:  Max 1.47E-03 RMS 2.04E-04

Current DIIS subspace size = 8
REM_GRID_RESTART_DIIS = 0

    8    -152.7015986573      2.04E-04  00000
Finding J and K together
 Job number = 22, Threshold = 1.00E-11
Integral type ranges set in mkLRange.C for JobNum: 22  <1-6|1-6>
 MakeJK  time:  CPU       0.18 s  wall       0.18 s
Fock build time:  0.18 s (CPU) 0.18 s (wall)
DIIS Errors:  Max 2.50E-04 RMS 4.81E-05

Current DIIS subspace size = 9
REM_GRID_RESTART_DIIS = 0

    9    -152.7016466484      4.81E-05  00000
Finding J and K together
 Job number = 22, Threshold = 1.00E-11
Integral type ranges set in mkLRange.C for JobNum: 22  <1-6|1-6>
 MakeJK  time:  CPU       0.18 s  wall       0.18 s
Fock build time:  0.18 s (CPU) 0.18 s (wall)
DIIS Errors:  Max 1.06E-04 RMS 1.69E-05

Current DIIS subspace size = 10
REM_GRID_RESTART_DIIS = 0

   10    -152.7016486363      1.69E-05  00000
Finding J and K together
 Job number = 22, Threshold = 1.00E-11
Integral type ranges set in mkLRange.C for JobNum: 22  <1-6|1-6>
 MakeJK  time:  CPU       0.17 s  wall       0.17 s
Fock build time:  0.17 s (CPU) 0.17 s (wall)
DIIS Errors:  Max 8.82E-05 RMS 1.13E-05

Current DIIS subspace size = 11
REM_GRID_RESTART_DIIS = 0

   11    -152.7016487821      1.13E-05  00000
Finding J and K together
 Job number = 22, Threshold = 1.00E-11
Integral type ranges set in mkLRange.C for JobNum: 22  <1-6|1-6>
 MakeJK  time:  CPU       0.14 s  wall       0.14 s
Fock build time:  0.14 s (CPU) 0.14 s (wall)
DIIS Errors:  Max 5.14E-05 RMS 6.09E-06

Current DIIS subspace size = 12
REM_GRID_RESTART_DIIS = 0

   12    -152.7016488485      6.09E-06  00000
Finding J and K together
 Job number = 22, Threshold = 1.00E-11
Integral type ranges set in mkLRange.C for JobNum: 22  <1-6|1-6>
 MakeJK  time:  CPU       0.12 s  wall       0.12 s
Fock build time:  0.12 s (CPU) 0.12 s (wall)
DIIS Errors:  Max 1.67E-05 RMS 2.28E-06

Current DIIS subspace size = 13
REM_GRID_RESTART_DIIS = 0

   13    -152.7016488836      2.28E-06  00000
Finding J and K together
 Job number = 22, Threshold = 1.00E-11
Integral type ranges set in mkLRange.C for JobNum: 22  <1-6|1-6>
 MakeJK  time:  CPU       0.13 s  wall       0.13 s
Fock build time:  0.13 s (CPU) 0.13 s (wall)
DIIS Errors:  Max 3.29E-06 RMS 5.34E-07

Current DIIS subspace size = 14
REM_GRID_RESTART_DIIS = 0

   14    -152.7016488873      5.34E-07  00000
Finding J and K together
 Job number = 22, Threshold = 1.00E-11
Integral type ranges set in mkLRange.C for JobNum: 22  <1-6|1-6>
 MakeJK  time:  CPU       0.16 s  wall       0.16 s
Fock build time:  0.16 s (CPU) 0.16 s (wall)
DIIS Errors:  Max 5.09E-07 RMS 8.00E-08

Current DIIS subspace size = 15
REM_GRID_RESTART_DIIS = 0

   15    -152.7016488875      8.00E-08  00000
Finding J and K together
 Job number = 22, Threshold = 1.00E-11
Integral type ranges set in mkLRange.C for JobNum: 22  <1-6|1-6>
 MakeJK  time:  CPU       0.17 s  wall       0.17 s
Fock build time:  0.17 s (CPU) 0.17 s (wall)
DIIS Errors:  Max 7.19E-08 RMS 1.56E-08

Current DIIS subspace size = 15
REM_GRID_RESTART_DIIS = 0

   16    -152.7016488875      1.56E-08  00000
Finding J and K together
 Job number = 22, Threshold = 1.00E-11
Integral type ranges set in mkLRange.C for JobNum: 22  <1-6|1-6>
 MakeJK  time:  CPU       0.17 s  wall       0.17 s
Fock build time:  0.17 s (CPU) 0.17 s (wall)
DIIS Errors:  Max 1.55E-08 RMS 3.32E-09

Current DIIS subspace size = 15
REM_GRID_RESTART_DIIS = 0

   17    -152.7016488875      3.32E-09  00000 Convergence criterion met
 ---------------------------------------
 SCF time:  CPU 2.89 s  wall 2.93 s
 SCF   energy in the final basis set = -152.70164889
 Total energy in the final basis set = -152.70164889
drvman_main.C: 73: calling DrvMan  Calculating analytic gradient of the SCF energy
drvman.C : 218: Calculating analytic gradient of the SCF energy
drvman.C: 244: calling SCF_Grad for normal SCF gradient
 Job number = 111, Threshold = 1.00E-11
Integral type ranges set in mkLRange.C for JobNum: 11  <1-6|7-7>
Finding J and K together
 ML is being used
 Job number = 122, Threshold = 1.00E-11
Integral type ranges set in mkLRange.C for JobNum: 22  <1-6|1-6>
 MakeJK  time:  CPU       0.43 s  wall       0.46 s
 Gradient of SCF Energy
            1           2           3           4           5           6
    1  -0.0411868  -0.0689291   0.0248526   0.0545503   0.1391193  -0.1838553
    2  -0.0969964   0.1691590   0.0107645  -0.0152612  -0.2162950   0.1397742
    3  -0.0439441   0.1282720   0.0181525  -0.0349846  -0.0661798   0.0081969
            7           8           9          10
    1   0.0556984  -0.0008775   0.0171056   0.0035224
    2  -0.0003171   0.0330405   0.0087425  -0.0326111
    3   0.0148775   0.0088228  -0.0153483  -0.0178650
 Max gradient component =       2.163E-01
 RMS gradient           =       8.140E-02
drvman.C: 248: out of SCF_Grad for normal SCF gradient
 Gradient time:  CPU 0.45 s  wall 0.49 s
 ------------------------------------------------------------------------------
                     drvman        : Timing summary (seconds)
 ------------------------------------------------------------------------------
     job step          cpu (% of tot)      sys (% of tot)     wall (% of tot)
 ------------------------------------------------------------------------------
 ------------------------------------------------------------------------------
   Grand Totals     0.4520E+00          0.2000E-05          0.4855E+00
 ------------------------------------------------------------------------------
drvman_main.C: 77: out of DrvMan  Time for this dynamics step: 3.4 s (CPU) 3.5 s (wall)

TIME STEP #5 (t = 80.000 a.u. = 1.93511 fs)
--------------------------------------
 Instantaneous Temperature = 1103.4 K
 ----------------------------------------------------------------
             Standard Nuclear Orientation (Angstroms)
    I     Atom           X                Y                Z
 ----------------------------------------------------------------
    1      C       5.3347375125    -1.0232166008    -0.2780902014
    2      C       4.2873457256    -0.0766176060    -0.1701171714
    3      H       6.1854825514    -0.8491641767     0.4414503649
    4      H       5.7366834720    -1.6419289744    -1.1158723002
    5      C       3.2249301645    -0.5983959765    -1.1602624377
    6      C       1.9237315422     0.7448133442    -1.2159990575
    7      H       1.1718392789     0.2933237407    -1.7803282269
    8      H       1.7671038410     1.5253539094    -0.4510778529
    9      H       4.3543391267     0.8937572626     0.3423719117
   10      H       3.4431135876    -1.4050907976    -1.8906881466
 ----------------------------------------------------------------
 Nuclear Repulsion Energy =    95.7427372677 hartrees
 There are       15 alpha and       15 beta electrons

                       Distance Matrix (Angstroms)
             C (  1)   C (  2)   H (  3)   H (  4)   C (  5)   C (  6)
   C (  2)  1.415887
   H (  3)  1.127741  2.138637
   H (  4)  1.116353  2.333502  1.804204
   C (  5)  2.325938  1.543168  3.375387  2.720264
   C (  6)  3.954815  2.712064  4.842564  4.499463  1.870945
   H (  7)  4.617328  3.526474  5.601625  5.002450  2.322677  1.042906
   H (  8)  4.387841  2.999478  5.094803  5.121640  2.671800  1.104029
   H (  9)  2.240746  1.099436  2.529956  3.235283  2.399999  2.891117
   H ( 10)  2.514864  2.331938  3.642597  2.432467  1.109902  2.717686
             H (  7)   H (  8)   H (  9)
   H (  8)  1.907654
   H (  9)  3.872297  2.778896
   H ( 10)  2.838217  3.670013  3.331905

 Applying Cartesian multipole field
    Component          Value
    ---------          -----
     (2,0,0)        1.00000E-12
     (0,2,0)        2.00000E-11
     (0,0,2)       -3.00000E-11
 Nucleus-field energy     =     0.0000000003 hartrees
 ENuRep (before)= 95.7427372677
 ENucField = 0.0000000003
 ENuRep (after) = 95.7427372680
 Job number = 2, Threshold = 1.00E-11
Integral type ranges set in mkLRange.C for JobNum: 2  <1-6|1-6>
Symmetry turned off temporarily
Symmetry turned back on
 Job number = 11, Threshold = 1.00E-11
Integral type ranges set in mkLRange.C for JobNum: 11  <1-6|7-7>
 Smallest overlap matrix eigenvalue = 2.24E-01
 Multipole matrices computed through 2nd order
 Guess from superposition of atomic densities
 Warning:  Energy on first SCF cycle will be non-variational
 SAD guess density has 30.000000 electrons
 SCF convergence criterion is 10**(-8)
 A restricted Hartree-Fock SCF calculation will be
 performed using Pulay DIIS extrapolation
 SCF converges when DIIS error is below 1.0E-08
Finding J and K together
 Job number = 22, Threshold = 1.00E-11
Integral type ranges set in mkLRange.C for JobNum: 22  <1-6|1-6>
 MakeJK  time:  CPU       0.14 s  wall       0.15 s
Fock build time:  0.14 s (CPU) 0.15 s (wall)
DIIS Errors:  Max 9.29E-01 RMS 1.66E-01

Current DIIS subspace size = 1
REM_GRID_RESTART_DIIS = 0

 ---------------------------------------
  Cycle       Energy         DIIS Error
 ---------------------------------------
    1    -151.6953170307      1.66E-01  00000
Finding J and K together
 Job number = 22, Threshold = 1.00E-11
Integral type ranges set in mkLRange.C for JobNum: 22  <1-6|1-6>
 MakeJK  time:  CPU       0.18 s  wall       0.19 s
Fock build time:  0.18 s (CPU) 0.19 s (wall)
DIIS Errors:  Max 8.63E-02 RMS 1.55E-02

Current DIIS subspace size = 2
REM_GRID_RESTART_DIIS = 0

    2    -152.6781652683      1.55E-02  00000
Finding J and K together
 Job number = 22, Threshold = 1.00E-11
Integral type ranges set in mkLRange.C for JobNum: 22  <1-6|1-6>
 MakeJK  time:  CPU       0.12 s  wall       0.12 s
Fock build time:  0.12 s (CPU) 0.12 s (wall)
DIIS Errors:  Max 8.98E-02 RMS 1.23E-02

Current DIIS subspace size = 3
REM_GRID_RESTART_DIIS = 0

    3    -152.7032379256      1.23E-02  00000
Finding J and K together
 Job number = 22, Threshold = 1.00E-11
Integral type ranges set in mkLRange.C for JobNum: 22  <1-6|1-6>
 MakeJK  time:  CPU       0.19 s  wall       0.19 s
Fock build time:  0.19 s (CPU) 0.19 s (wall)
DIIS Errors:  Max 3.95E-02 RMS 4.80E-03

Current DIIS subspace size = 4
REM_GRID_RESTART_DIIS = 0

    4    -152.7192730113      4.80E-03  00000
Finding J and K together
 Job number = 22, Threshold = 1.00E-11
Integral type ranges set in mkLRange.C for JobNum: 22  <1-6|1-6>
 MakeJK  time:  CPU       0.19 s  wall       0.19 s
Fock build time:  0.19 s (CPU) 0.19 s (wall)
DIIS Errors:  Max 6.70E-03 RMS 1.03E-03

Current DIIS subspace size = 5
REM_GRID_RESTART_DIIS = 0

    5    -152.7229555924      1.03E-03  00000
Finding J and K together
 Job number = 22, Threshold = 1.00E-11
Integral type ranges set in mkLRange.C for JobNum: 22  <1-6|1-6>
 MakeJK  time:  CPU       0.18 s  wall       0.18 s
Fock build time:  0.18 s (CPU) 0.18 s (wall)
DIIS Errors:  Max 5.08E-03 RMS 6.33E-04

Current DIIS subspace size = 6
REM_GRID_RESTART_DIIS = 0

    6    -152.7232956736      6.33E-04  00000
Finding J and K together
 Job number = 22, Threshold = 1.00E-11
Integral type ranges set in mkLRange.C for JobNum: 22  <1-6|1-6>
 MakeJK  time:  CPU       0.19 s  wall       0.19 s
Fock build time:  0.19 s (CPU) 0.19 s (wall)
DIIS Errors:  Max 2.98E-03 RMS 3.82E-04

Current DIIS subspace size = 7
REM_GRID_RESTART_DIIS = 0

    7    -152.7235830679      3.82E-04  00000
Finding J and K together
 Job number = 22, Threshold = 1.00E-11
Integral type ranges set in mkLRange.C for JobNum: 22  <1-6|1-6>
 MakeJK  time:  CPU       0.19 s  wall       0.19 s
Fock build time:  0.19 s (CPU) 0.19 s (wall)
DIIS Errors:  Max 1.24E-03 RMS 1.76E-04

Current DIIS subspace size = 8
REM_GRID_RESTART_DIIS = 0

    8    -152.7237187785      1.76E-04  00000
Finding J and K together
 Job number = 22, Threshold = 1.00E-11
Integral type ranges set in mkLRange.C for JobNum: 22  <1-6|1-6>
 MakeJK  time:  CPU       0.18 s  wall       0.18 s
Fock build time:  0.18 s (CPU) 0.18 s (wall)
DIIS Errors:  Max 2.20E-04 RMS 4.16E-05

Current DIIS subspace size = 9
REM_GRID_RESTART_DIIS = 0

    9    -152.7237528926      4.16E-05  00000
Finding J and K together
 Job number = 22, Threshold = 1.00E-11
Integral type ranges set in mkLRange.C for JobNum: 22  <1-6|1-6>
 MakeJK  time:  CPU       0.14 s  wall       0.14 s
Fock build time:  0.14 s (CPU) 0.14 s (wall)
DIIS Errors:  Max 7.83E-05 RMS 1.32E-05

Current DIIS subspace size = 10
REM_GRID_RESTART_DIIS = 0

   10    -152.7237543429      1.32E-05  00000
Finding J and K together
 Job number = 22, Threshold = 1.00E-11
Integral type ranges set in mkLRange.C for JobNum: 22  <1-6|1-6>
 MakeJK  time:  CPU       0.15 s  wall       0.15 s
Fock build time:  0.15 s (CPU) 0.15 s (wall)
DIIS Errors:  Max 6.36E-05 RMS 8.20E-06

Current DIIS subspace size = 11
REM_GRID_RESTART_DIIS = 0

   11    -152.7237544280      8.20E-06  00000
Finding J and K together
 Job number = 22, Threshold = 1.00E-11
Integral type ranges set in mkLRange.C for JobNum: 22  <1-6|1-6>
 MakeJK  time:  CPU       0.14 s  wall       0.13 s
Fock build time:  0.14 s (CPU) 0.13 s (wall)
DIIS Errors:  Max 3.67E-05 RMS 4.37E-06

Current DIIS subspace size = 12
REM_GRID_RESTART_DIIS = 0

   12    -152.7237544608      4.37E-06  00000
Finding J and K together
 Job number = 22, Threshold = 1.00E-11
Integral type ranges set in mkLRange.C for JobNum: 22  <1-6|1-6>
 MakeJK  time:  CPU       0.14 s  wall       0.14 s
Fock build time:  0.14 s (CPU) 0.14 s (wall)
DIIS Errors:  Max 1.21E-05 RMS 1.64E-06

Current DIIS subspace size = 13
REM_GRID_RESTART_DIIS = 0

   13    -152.7237544767      1.64E-06  00000
Finding J and K together
 Job number = 22, Threshold = 1.00E-11
Integral type ranges set in mkLRange.C for JobNum: 22  <1-6|1-6>
 MakeJK  time:  CPU       0.14 s  wall       0.14 s
Fock build time:  0.14 s (CPU) 0.14 s (wall)
DIIS Errors:  Max 2.30E-06 RMS 3.85E-07

Current DIIS subspace size = 14
REM_GRID_RESTART_DIIS = 0

   14    -152.7237544785      3.85E-07  00000
Finding J and K together
 Job number = 22, Threshold = 1.00E-11
Integral type ranges set in mkLRange.C for JobNum: 22  <1-6|1-6>
 MakeJK  time:  CPU       0.14 s  wall       0.14 s
Fock build time:  0.14 s (CPU) 0.14 s (wall)
DIIS Errors:  Max 3.37E-07 RMS 5.31E-08

Current DIIS subspace size = 15
REM_GRID_RESTART_DIIS = 0

   15    -152.7237544785      5.31E-08  00000
Finding J and K together
 Job number = 22, Threshold = 1.00E-11
Integral type ranges set in mkLRange.C for JobNum: 22  <1-6|1-6>
 MakeJK  time:  CPU       0.15 s  wall       0.15 s
Fock build time:  0.15 s (CPU) 0.15 s (wall)
DIIS Errors:  Max 4.88E-08 RMS 1.04E-08

Current DIIS subspace size = 15
REM_GRID_RESTART_DIIS = 0

   16    -152.7237544785      1.04E-08  00000
Finding J and K together
 Job number = 22, Threshold = 1.00E-11
Integral type ranges set in mkLRange.C for JobNum: 22  <1-6|1-6>
 MakeJK  time:  CPU       0.12 s  wall       0.13 s
Fock build time:  0.13 s (CPU) 0.13 s (wall)
DIIS Errors:  Max 1.00E-08 RMS 2.06E-09

Current DIIS subspace size = 15
REM_GRID_RESTART_DIIS = 0

   17    -152.7237544785      2.06E-09  00000 Convergence criterion met
 ---------------------------------------
 SCF time:  CPU 2.72 s  wall 2.74 s
 SCF   energy in the final basis set = -152.72375448
 Total energy in the final basis set = -152.72375448
drvman_main.C: 73: calling DrvMan  Calculating analytic gradient of the SCF energy
drvman.C : 218: Calculating analytic gradient of the SCF energy
drvman.C: 244: calling SCF_Grad for normal SCF gradient
 Job number = 111, Threshold = 1.00E-11
Integral type ranges set in mkLRange.C for JobNum: 11  <1-6|7-7>
Finding J and K together
 ML is being used
 Job number = 122, Threshold = 1.00E-11
Integral type ranges set in mkLRange.C for JobNum: 22  <1-6|1-6>
 MakeJK  time:  CPU       0.39 s  wall       0.40 s
 Gradient of SCF Energy
            1           2           3           4           5           6
    1  -0.0281716  -0.0656734   0.0216223   0.0441296   0.1406887  -0.1831652
    2  -0.1050302   0.1469471   0.0094489  -0.0023219  -0.2300523   0.1547257
    3  -0.0589209   0.1137952   0.0183875  -0.0176670  -0.0718386   0.0141322
            7           8           9          10
    1   0.0518573  -0.0010489   0.0164000   0.0033612
    2  -0.0021839   0.0247173   0.0234480  -0.0196986
    3   0.0142156   0.0019400  -0.0076484  -0.0063955
 Max gradient component =       2.301E-01
 RMS gradient           =       8.118E-02
drvman.C: 248: out of SCF_Grad for normal SCF gradient
 Gradient time:  CPU 0.41 s  wall 0.42 s
 ------------------------------------------------------------------------------
                     drvman        : Timing summary (seconds)
 ------------------------------------------------------------------------------
     job step          cpu (% of tot)      sys (% of tot)     wall (% of tot)
 ------------------------------------------------------------------------------
 ------------------------------------------------------------------------------
   Grand Totals     0.4120E+00          0.2000E-05          0.4166E+00
 ------------------------------------------------------------------------------
drvman_main.C: 77: out of DrvMan  Time for this dynamics step: 3.2 s (CPU) 3.2 s (wall)

TIME STEP #6 (t = 100.000 a.u. = 2.41888 fs)
--------------------------------------
 Instantaneous Temperature = 1566.0 K
 ----------------------------------------------------------------
             Standard Nuclear Orientation (Angstroms)
[...]
    5      C       2.9074630329    -0.1941342804    -0.7790371729
    6      C       2.0898865616     0.3446197457    -1.7292356031
    7      H       0.9030217146     0.4789309688    -1.6585110368
    8      H       2.6341411892     0.8281221729    -2.4102002347
    9      H       5.2155137511     0.1862911328    -1.3756464138
   10      H       2.0354958328    -0.8855311586    -0.0242279943
 ----------------------------------------------------------------
 Nuclear Repulsion Energy =    97.2084611648 hartrees
 There are       15 alpha and       15 beta electrons

                       Distance Matrix (Angstroms)
             C (  1)   C (  2)   H (  3)   H (  4)   C (  5)   C (  6)
   C (  2)  1.443104
   H (  3)  1.093095  2.064669
   H (  4)  1.041100  2.349639  1.691604
   C (  5)  2.673955  1.703778  3.557842  3.136611
   C (  6)  3.962135  2.764243  4.777224  4.492276  1.364392
   H (  7)  4.963584  3.875997  5.816004  5.350781  2.290038  1.196532
   H (  8)  4.161421  2.786618  4.835362  4.872595  1.944327  0.996845
   H (  9)  2.038709  0.970144  2.308657  3.057336  2.414076  3.149546
   H ( 10)  3.209134  2.763590  4.199072  3.240862  1.344654  2.103160
             H (  7)   H (  8)   H (  9)
   H (  8)  1.919309
   H (  9)  4.331655  2.854073
   H ( 10)  2.411459  2.997974  3.617686

 Applying Cartesian multipole field
    Component          Value
    ---------          -----
     (2,0,0)        1.00000E-12
     (0,2,0)        2.00000E-11
     (0,0,2)       -3.00000E-11
 Nucleus-field energy     =    -0.0000000015 hartrees
 ENuRep (before)= 97.2084611648
 ENucField = -0.0000000015
 ENuRep (after) = 97.2084611633
 Job number = 2, Threshold = 1.00E-11
Integral type ranges set in mkLRange.C for JobNum: 2  <1-6|1-6>
Symmetry turned off temporarily
Symmetry turned back on
 Job number = 11, Threshold = 1.00E-11
Integral type ranges set in mkLRange.C for JobNum: 11  <1-6|7-7>
 Smallest overlap matrix eigenvalue = 1.96E-01
 Multipole matrices computed through 2nd order
 Extrapolating the Fock matrix using 12 points and a 6th-order polynomial
 Alpha Fock matrix extrapolation
 Skip SCF guess (diagonalize extrapolated Fock matrix instead)
 SCF convergence criterion is 10**(-8)
 A restricted Hartree-Fock SCF calculation will be
 performed using Pulay DIIS extrapolation
 SCF converges when DIIS error is below 1.0E-08
Extrapolated Fock matrix used in lieu of Fock build
Fock build time:  0.00 s (CPU) 0.00 s (wall)
DIIS Errors:  Max 8.59E-02 RMS 1.04E-02

Current DIIS subspace size = 1
REM_GRID_RESTART_DIIS = 0

 ---------------------------------------
  Cycle       Energy         DIIS Error
 ---------------------------------------
    1    -301.8042686995      1.04E-02  00000
Finding J and K together
 Job number = 22, Threshold = 1.00E-11
Integral type ranges set in mkLRange.C for JobNum: 22  <1-6|1-6>
 MakeJK  time:  CPU       0.10 s  wall       0.10 s
Fock build time:  0.10 s (CPU) 0.10 s (wall)
DIIS Errors:  Max 7.21E-02 RMS 5.88E-03

Current DIIS subspace size = 2
REM_GRID_RESTART_DIIS = 0

    2    -152.8243013698      5.88E-03  00000
Finding J and K together
 Job number = 22, Threshold = 1.00E-11
Integral type ranges set in mkLRange.C for JobNum: 22  <1-6|1-6>
 MakeJK  time:  CPU       0.10 s  wall       0.10 s
Fock build time:  0.10 s (CPU) 0.10 s (wall)
DIIS Errors:  Max 2.62E-02 RMS 2.15E-03

Current DIIS subspace size = 3
REM_GRID_RESTART_DIIS = 0

    3    -152.8248009820      2.15E-03  00000
Finding J and K together
 Job number = 22, Threshold = 1.00E-11
Integral type ranges set in mkLRange.C for JobNum: 22  <1-6|1-6>
 MakeJK  time:  CPU       0.10 s  wall       0.10 s
Fock build time:  0.10 s (CPU) 0.10 s (wall)
DIIS Errors:  Max 4.60E-04 RMS 8.84E-05

Current DIIS subspace size = 4
REM_GRID_RESTART_DIIS = 0

    4    -152.8248837312      8.84E-05  00000
Finding J and K together
 Job number = 22, Threshold = 1.00E-11
Integral type ranges set in mkLRange.C for JobNum: 22  <1-6|1-6>
 MakeJK  time:  CPU       0.10 s  wall       0.10 s
Fock build time:  0.10 s (CPU) 0.10 s (wall)
DIIS Errors:  Max 3.24E-04 RMS 2.97E-05

Current DIIS subspace size = 5
REM_GRID_RESTART_DIIS = 0

    5    -152.8248845583      2.97E-05  00000
Finding J and K together
 Job number = 22, Threshold = 1.00E-11
Integral type ranges set in mkLRange.C for JobNum: 22  <1-6|1-6>
 MakeJK  time:  CPU       0.10 s  wall       0.09 s
Fock build time:  0.10 s (CPU) 0.09 s (wall)
DIIS Errors:  Max 5.88E-05 RMS 1.07E-05

Current DIIS subspace size = 6
REM_GRID_RESTART_DIIS = 0

    6    -152.8248848790      1.07E-05  00000
Finding J and K together
 Job number = 22, Threshold = 1.00E-11
Integral type ranges set in mkLRange.C for JobNum: 22  <1-6|1-6>
 MakeJK  time:  CPU       0.10 s  wall       0.09 s
Fock build time:  0.10 s (CPU) 0.09 s (wall)
DIIS Errors:  Max 1.30E-05 RMS 2.48E-06

Current DIIS subspace size = 7
REM_GRID_RESTART_DIIS = 0

    7    -152.8248849039      2.48E-06  00000
Finding J and K together
 Job number = 22, Threshold = 1.00E-11
Integral type ranges set in mkLRange.C for JobNum: 22  <1-6|1-6>
 MakeJK  time:  CPU       0.10 s  wall       0.10 s
Fock build time:  0.10 s (CPU) 0.10 s (wall)
DIIS Errors:  Max 5.48E-06 RMS 8.10E-07

Current DIIS subspace size = 8
REM_GRID_RESTART_DIIS = 0

    8    -152.8248849047      8.10E-07  00000
Finding J and K together
 Job number = 22, Threshold = 1.00E-11
Integral type ranges set in mkLRange.C for JobNum: 22  <1-6|1-6>
 MakeJK  time:  CPU       0.10 s  wall       0.10 s
Fock build time:  0.10 s (CPU) 0.10 s (wall)
DIIS Errors:  Max 1.34E-06 RMS 2.50E-07

Current DIIS subspace size = 9
REM_GRID_RESTART_DIIS = 0

    9    -152.8248849049      2.50E-07  00000
Finding J and K together
 Job number = 22, Threshold = 1.00E-11
Integral type ranges set in mkLRange.C for JobNum: 22  <1-6|1-6>
 MakeJK  time:  CPU       0.10 s  wall       0.09 s
Fock build time:  0.10 s (CPU) 0.09 s (wall)
DIIS Errors:  Max 3.00E-07 RMS 5.08E-08

Current DIIS subspace size = 10
REM_GRID_RESTART_DIIS = 0

   10    -152.8248849049      5.08E-08  00000
Finding J and K together
 Job number = 22, Threshold = 1.00E-11
Integral type ranges set in mkLRange.C for JobNum: 22  <1-6|1-6>
 MakeJK  time:  CPU       0.10 s  wall       0.09 s
Fock build time:  0.10 s (CPU) 0.09 s (wall)
DIIS Errors:  Max 7.51E-08 RMS 1.47E-08

Current DIIS subspace size = 11
REM_GRID_RESTART_DIIS = 0

   11    -152.8248849049      1.47E-08  00000
Finding J and K together
 Job number = 22, Threshold = 1.00E-11
Integral type ranges set in mkLRange.C for JobNum: 22  <1-6|1-6>
 MakeJK  time:  CPU       0.09 s  wall       0.09 s
Fock build time:  0.09 s (CPU) 0.09 s (wall)
DIIS Errors:  Max 1.63E-08 RMS 3.58E-09

Current DIIS subspace size = 12
REM_GRID_RESTART_DIIS = 0

   12    -152.8248849049      3.58E-09  00000 Convergence criterion met
 ---------------------------------------
 SCF time:  CPU 1.06 s  wall 1.06 s
 SCF   energy in the final basis set = -152.82488490
 Total energy in the final basis set = -152.82488490
drvman_main.C: 73: calling DrvMan  Calculating analytic gradient of the SCF energy
drvman.C : 218: Calculating analytic gradient of the SCF energy
drvman.C: 244: calling SCF_Grad for normal SCF gradient
 Job number = 111, Threshold = 1.00E-11
Integral type ranges set in mkLRange.C for JobNum: 11  <1-6|7-7>
Finding J and K together
 ML is being used
 Job number = 122, Threshold = 1.00E-11
Integral type ranges set in mkLRange.C for JobNum: 22  <1-6|1-6>
 MakeJK  time:  CPU       0.30 s  wall       0.30 s
 Gradient of SCF Energy
            1           2           3           4           5           6
    1   0.0003180   0.1618794  -0.0187776   0.0494499   0.0780262   0.0297832
    2  -0.1525424   0.1919252   0.0233308   0.0256604   0.0499663   0.0350735
    3   0.0921467  -0.2091733   0.0231787  -0.0226592  -0.0106882  -0.1093929
            7           8           9          10
    1  -0.0842643  -0.0278511  -0.0749450  -0.1136188
    2   0.0190546  -0.0597622  -0.0750789  -0.0576274
    3   0.0084047   0.0848661   0.1009114   0.0424059
 Max gradient component =       2.092E-01
 RMS gradient           =       8.659E-02
drvman.C: 248: out of SCF_Grad for normal SCF gradient
 Gradient time:  CPU 0.31 s  wall 0.31 s
 ------------------------------------------------------------------------------
                     drvman        : Timing summary (seconds)
 ------------------------------------------------------------------------------
     job step          cpu (% of tot)      sys (% of tot)     wall (% of tot)
 ------------------------------------------------------------------------------
 ------------------------------------------------------------------------------
   Grand Totals     0.3120E+00          0.1000E-05          0.3092E+00
 ------------------------------------------------------------------------------
drvman_main.C: 77: out of DrvMan  Time for this dynamics step: 1.4 s (CPU) 1.4 s (wall)

TIME STEP #400 (t = 7980.000 a.u. = 193.02697 fs)
--------------------------------------
 Instantaneous Temperature = 3696.2 K
 ----------------------------------------------------------------
             Standard Nuclear Orientation (Angstroms)
    I     Atom           X                Y                Z
 ----------------------------------------------------------------
    1      C       5.2271235273    -0.9586753001     0.3119989820
    2      C       4.6122030704    -0.1150403798    -0.6902639505
    3      H       6.1725219587    -0.5274815165     0.6543130309
    4      H       5.0163061917    -1.6432670411     1.1101393132
    5      C       2.8997949925    -0.1850246332    -0.7872474504
    6      C       2.0965724422     0.3364258970    -1.7159650243
    7      H       0.9263239947     0.4604577780    -1.6877741857
    8      H       2.5824126358     0.8414460876    -2.4360415806
    9      H       5.2084060246     0.1765512691    -1.3787202410
   10      H       1.9792572043    -0.8617849926    -0.0372725861
 ----------------------------------------------------------------
 Nuclear Repulsion Energy =    97.2240774058 hartrees
 There are       15 alpha and       15 beta electrons

                       Distance Matrix (Angstroms)
             C (  1)   C (  2)   H (  3)   H (  4)   C (  5)   C (  6)
   C (  2)  1.447197
   H (  3)  1.094022  2.100617
   H (  4)  1.072445  2.395877  1.670207
   C (  5)  2.687626  1.716579  3.592508  3.194709
   C (  6)  3.948452  2.753958  4.793529  4.520055  1.334014
   H (  7)  4.950748  3.861597  5.829579  5.383487  2.263224  1.177141
   H (  8)  4.217423  2.843001  4.930836  4.967196  1.967967  1.004787
   H (  9)  2.036571  0.956272  2.357627  3.089185  2.410449  3.134135
   H ( 10)  3.268029  2.813615  4.263041  3.339302  1.366696  2.065788
             H (  7)   H (  8)   H (  9)
   H (  8)  1.856794
   H (  9)  4.302597  2.907895
   H ( 10)  2.362446  3.003146  3.647606

 Applying Cartesian multipole field
    Component          Value
    ---------          -----
     (2,0,0)        1.00000E-12
     (0,2,0)        2.00000E-11
     (0,0,2)       -3.00000E-11
 Nucleus-field energy     =    -0.0000000015 hartrees
 ENuRep (before)= 97.2240774058
 ENucField = -0.0000000015
 ENuRep (after) = 97.2240774043
 Job number = 2, Threshold = 1.00E-11
Integral type ranges set in mkLRange.C for JobNum: 2  <1-6|1-6>
Symmetry turned off temporarily
Symmetry turned back on
 Job number = 11, Threshold = 1.00E-11
Integral type ranges set in mkLRange.C for JobNum: 11  <1-6|7-7>
 Smallest overlap matrix eigenvalue = 1.88E-01
 Multipole matrices computed through 2nd order
 Extrapolating the Fock matrix using 12 points and a 6th-order polynomial
 Alpha Fock matrix extrapolation
 Skip SCF guess (diagonalize extrapolated Fock matrix instead)
 SCF convergence criterion is 10**(-8)
 A restricted Hartree-Fock SCF calculation will be
 performed using Pulay DIIS extrapolation
 SCF converges when DIIS error is below 1.0E-08
Extrapolated Fock matrix used in lieu of Fock build
Fock build time:  0.00 s (CPU) 0.00 s (wall)
DIIS Errors:  Max 7.28E-02 RMS 9.13E-03

Current DIIS subspace size = 1
REM_GRID_RESTART_DIIS = 0

 ---------------------------------------
  Cycle       Energy         DIIS Error
 ---------------------------------------
    1    -301.7085534208      9.13E-03  00000
Finding J and K together
 Job number = 22, Threshold = 1.00E-11
Integral type ranges set in mkLRange.C for JobNum: 22  <1-6|1-6>
 MakeJK  time:  CPU       0.10 s  wall       0.10 s
Fock build time:  0.10 s (CPU) 0.10 s (wall)
DIIS Errors:  Max 2.68E-02 RMS 3.77E-03

Current DIIS subspace size = 2
REM_GRID_RESTART_DIIS = 0

    2    -152.8159447437      3.77E-03  00000
Finding J and K together
 Job number = 22, Threshold = 1.00E-11
Integral type ranges set in mkLRange.C for JobNum: 22  <1-6|1-6>
 MakeJK  time:  CPU       0.10 s  wall       0.10 s
Fock build time:  0.10 s (CPU) 0.10 s (wall)
DIIS Errors:  Max 7.24E-03 RMS 1.06E-03

Current DIIS subspace size = 3
REM_GRID_RESTART_DIIS = 0

    3    -152.8162300256      1.06E-03  00000
Finding J and K together
 Job number = 22, Threshold = 1.00E-11
Integral type ranges set in mkLRange.C for JobNum: 22  <1-6|1-6>
 MakeJK  time:  CPU       0.10 s  wall       0.10 s
Fock build time:  0.10 s (CPU) 0.10 s (wall)
DIIS Errors:  Max 6.57E-04 RMS 1.02E-04

Current DIIS subspace size = 4
REM_GRID_RESTART_DIIS = 0

    4    -152.8162656054      1.02E-04  00000
Finding J and K together
 Job number = 22, Threshold = 1.00E-11
Integral type ranges set in mkLRange.C for JobNum: 22  <1-6|1-6>
 MakeJK  time:  CPU       0.09 s  wall       0.10 s
Fock build time:  0.09 s (CPU) 0.10 s (wall)
DIIS Errors:  Max 2.91E-04 RMS 4.57E-05

Current DIIS subspace size = 5
REM_GRID_RESTART_DIIS = 0

    5    -152.8162668447      4.57E-05  00000
Finding J and K together
 Job number = 22, Threshold = 1.00E-11
Integral type ranges set in mkLRange.C for JobNum: 22  <1-6|1-6>
 MakeJK  time:  CPU       0.10 s  wall       0.10 s
Fock build time:  0.10 s (CPU) 0.10 s (wall)
DIIS Errors:  Max 3.85E-05 RMS 5.29E-06

Current DIIS subspace size = 6
REM_GRID_RESTART_DIIS = 0

    6    -152.8162671254      5.29E-06  00000
Finding J and K together
 Job number = 22, Threshold = 1.00E-11
Integral type ranges set in mkLRange.C for JobNum: 22  <1-6|1-6>
 MakeJK  time:  CPU       0.10 s  wall       0.10 s
Fock build time:  0.10 s (CPU) 0.10 s (wall)
DIIS Errors:  Max 1.10E-05 RMS 2.35E-06

Current DIIS subspace size = 7
REM_GRID_RESTART_DIIS = 0

    7    -152.8162671333      2.35E-06  00000
Finding J and K together
 Job number = 22, Threshold = 1.00E-11
Integral type ranges set in mkLRange.C for JobNum: 22  <1-6|1-6>
 MakeJK  time:  CPU       0.10 s  wall       0.09 s
Fock build time:  0.10 s (CPU) 0.09 s (wall)
DIIS Errors:  Max 4.84E-06 RMS 6.95E-07

Current DIIS subspace size = 8
REM_GRID_RESTART_DIIS = 0

    8    -152.8162671346      6.95E-07  00000
Finding J and K together
 Job number = 22, Threshold = 1.00E-11
Integral type ranges set in mkLRange.C for JobNum: 22  <1-6|1-6>
 MakeJK  time:  CPU       0.10 s  wall       0.09 s
Fock build time:  0.10 s (CPU) 0.10 s (wall)
DIIS Errors:  Max 1.50E-06 RMS 3.22E-07

Current DIIS subspace size = 9
REM_GRID_RESTART_DIIS = 0

    9    -152.8162671347      3.22E-07  00000
Finding J and K together
 Job number = 22, Threshold = 1.00E-11
Integral type ranges set in mkLRange.C for JobNum: 22  <1-6|1-6>
 MakeJK  time:  CPU       0.10 s  wall       0.10 s
Fock build time:  0.10 s (CPU) 0.10 s (wall)
DIIS Errors:  Max 3.96E-07 RMS 7.37E-08

Current DIIS subspace size = 10
REM_GRID_RESTART_DIIS = 0

   10    -152.8162671347      7.37E-08  00000
Finding J and K together
 Job number = 22, Threshold = 1.00E-11
Integral type ranges set in mkLRange.C for JobNum: 22  <1-6|1-6>
 MakeJK  time:  CPU       0.10 s  wall       0.10 s
Fock build time:  0.10 s (CPU) 0.10 s (wall)
DIIS Errors:  Max 1.32E-07 RMS 2.35E-08

Current DIIS subspace size = 11
REM_GRID_RESTART_DIIS = 0

   11    -152.8162671347      2.35E-08  00000
Finding J and K together
 Job number = 22, Threshold = 1.00E-11
Integral type ranges set in mkLRange.C for JobNum: 22  <1-6|1-6>
 MakeJK  time:  CPU       0.10 s  wall       0.10 s
Fock build time:  0.10 s (CPU) 0.10 s (wall)
DIIS Errors:  Max 3.34E-08 RMS 5.89E-09

Current DIIS subspace size = 12
REM_GRID_RESTART_DIIS = 0

   12    -152.8162671347      5.89E-09  00000 Convergence criterion met
 ---------------------------------------
 SCF time:  CPU 1.07 s  wall 1.07 s
 SCF   energy in the final basis set = -152.81626713
 Total energy in the final basis set = -152.81626713
drvman_main.C: 73: calling DrvMan  Calculating analytic gradient of the SCF energy
drvman.C : 218: Calculating analytic gradient of the SCF energy
drvman.C: 244: calling SCF_Grad for normal SCF gradient
 Job number = 111, Threshold = 1.00E-11
Integral type ranges set in mkLRange.C for JobNum: 11  <1-6|7-7>
Finding J and K together
 ML is being used
 Job number = 122, Threshold = 1.00E-11
Integral type ranges set in mkLRange.C for JobNum: 22  <1-6|1-6>
 MakeJK  time:  CPU       0.26 s  wall       0.26 s
 Gradient of SCF Energy
            1           2           3           4           5           6
    1   0.0047559   0.1762396  -0.0191532   0.0487199   0.0602485   0.0390155
    2  -0.1284044   0.1980288   0.0165533   0.0069456   0.0643862   0.0093380
    3   0.0651158  -0.2321655   0.0306367   0.0018495  -0.0358431  -0.0621467
            7           8           9          10
    1  -0.0726208  -0.0263986  -0.0894651  -0.1213418
    2   0.0203195  -0.0510560  -0.0813620  -0.0547490
    3  -0.0006908   0.0745917   0.1183057   0.0403467
 Max gradient component =       2.322E-01
 RMS gradient           =       8.679E-02
drvman.C: 248: out of SCF_Grad for normal SCF gradient
 Gradient time:  CPU 0.27 s  wall 0.27 s
 ------------------------------------------------------------------------------
                     drvman        : Timing summary (seconds)
 ------------------------------------------------------------------------------
     job step          cpu (% of tot)      sys (% of tot)     wall (% of tot)
 ------------------------------------------------------------------------------
 ------------------------------------------------------------------------------
   Grand Totals     0.2720E+00          0.2000E-05          0.2720E+00
 ------------------------------------------------------------------------------
drvman_main.C: 77: out of DrvMan  Time for this dynamics step: 1.4 s (CPU) 1.4 s (wall)

=============== TIME STEPS COMPLETED ==================

Step-to-Step energy fluctuations, |E(n) - E(n-1)|
Mean: -7.864e-07   Max: 2.228e-03   RMS: 4.913e-04
Overall energy fluctuations, |E(n) - E(0)|
Mean: -8.287e-04   Max: 2.971e-03   RMS: 6.464e-04   RMS(dE)/RMS(dV): 1.496e-02
Kinetic energy fluctuations, |T(n) - V(0)|
Mean: 1.698e-01   Max: 3.089e-01   RMS: 4.280e-02
Potential energy fluctuations, |V(n) - V(0)|
Mean: -1.707e-01   Max: 3.103e-01   RMS: 4.322e-02


 JobOver = TRUE
Archival summary:
1\1\qciep03\JobtypUnspecified\HF\STO-3G\46\jcartus\MonJun1813:03:012018MonJun1813:03:012018\0\\#,JobtypUnspecified,HF,STO-3G,\\0,1\C\C,1,1.33401\H,2,1.00479,1,113.844\H,2,1.17714,1,128.543,3,-166.905,0\H,1,1.3667,2,99.7901,3,-175.955,0\C,1,1.71658,2,128.612,3,-0.843463,0\H,6,0.956272,1,126.421,2,-11.7901,0\C,6,1.4472,1,116.055,2,-170.206,0\H,8,1.07244,6,143.515,1,-3.43571,0\H,8,1.09402,6,110.739,1,-151.774,0\\HF=-152.816267\\@

 Total job time:  661.59s(wall), 657.98s(cpu) 
 Mon Jun 18 13:03:01 2018

        *************************************************************
        *                                                           *
        *  Thank you very much for using Q-Chem.  Have a nice day.  *
        *                                                           *
        *************************************************************


*** MISSION COMPLETED -- STARFLEET OUT ***

0 sent ACK to 0 
now end server 0 ... 
