Process 0 of 1 is on qciep03 - thread support 0
initial socket setup ...start
initial socket setup ...done 
now start server 0 ... 
qciep03.tugraz.at 127.0.1
Q-Chem Developer Version! Running on 127.0.1.*
                  Welcome to Q-Chem
     A Quantum Leap Into The Future Of Chemistry


 Q-Chem 5.0, Q-Chem, Inc., Pleasanton, CA (2017)

 Yihan Shao,  Zhengting Gan,  E. Epifanovsky,  A. T. B. Gilbert,  M. Wormit,  
 J. Kussmann,  A. W. Lange,  A. Behn,  Jia Deng,  Xintian Feng,  D. Ghosh,  
 M. Goldey,  P. R. Horn,  L. D. Jacobson,  I. Kaliman,  T. Kus,  A. Landau,  
 Jie Liu,  E. I. Proynov,  R. M. Richard,  R. P. Steele,  E. J. Sundstrom,  
 H. L. Woodcock III,  P. M. Zimmerman,  D. Zuev,  B. Albrecht,  E. Alguire,  
 S. A. Baeppler,  D. Barton,  Z. Benda,  Y. A. Bernard,  E. J. Berquist,  
 K. B. Bravaya,  H. Burton,  D. Casanova,  Chun-Min Chang,  Yunqing Chen,  
 A. Chien,  K. D. Closser,  M. P. Coons,  S. Dasgupta,  A. L. Dempwolff,  
 M. Diedenhofen,  Hainam Do,  R. G. Edgar,  Po-Tung Fang,  S. Fatehi,  
 Qingguo Feng,  J. Fosso-Tande,  Qinghui Ge,  A. Ghysels,  G. Gidofalvi,  
 J. Gomes,  J. Gonthier,  A. Gunina,  M. W. D. Hanson-Heine,  
 P. H. P. Harbach,  A. W. Hauser,  J. E. Herr,  E. G. Hohenstein,  
 Z. C. Holden,  Kerwin Hui,  T.-C. Jagau,  Hyunjun Ji,  B. Kaduk,  
 K. Khistyaev,  Jaehoon Kim,  P. Klunzinger,  K. Koh,  D. Kosenkov,  
 L. Koulias,  T. Kowalczyk,  C. M. Krauter,  A. Kunitsa,  Ka Un Lao,  
 A. Laurent,  K. V. Lawler,  Joonho Lee,  D. Lefrancois,  S. Lehtola,  
 D. S. Levine,  Yi-Pei Li,  You-Sheng Lin,  Fenglai Liu,  E. Livshits,  
 A. Luenser,  P. Manohar,  E. Mansoor,  S. F. Manzer,  Shan-Ping Mao,  
 Yuezhi Mao,  N. Mardirossian,  A. V. Marenich,  T. Markovich,  
 L. A. Martinez-Martinez,  S. A. Maurer,  N. J. Mayhall,  S. C. McKenzie,  
 J.-M. Mewes,  A. F. Morrison,  J. W. Mullinax,  K. Nanda,  
 T. S. Nguyen-Beck,  R. Olivares-Amaya,  J. A. Parkhill,  T. M. Perrine,  
 F. Plasser,  S. Prager,  A. Prociuk,  E. Ramos,  D. R. Rehn,  F. Rob,  
 M. Schneider,  N. Sergueev,  S. M. Sharada,  S. Sharma,  D. W. Small,  
 T. Stauch,  T. Stein,  Yu-Chuan Su,  A. J. W. Thom,  A. Tkatchenko,  
 T. Tsuchimochi,  L. Vogt,  O. Vydrov,  M. A. Watson,  J. Wenzel,  
 M. de Wergifosse,  T. A. Wesolowski,  A. White,  J. Witte,  A. Yamada,  
 Jun Yang,  K. Yao,  S. Yeganeh,  S. R. Yost,  Zhi-Qiang You,  A. Zech,  
 Igor Ying Zhang,  Xing Zhang,  Yan Zhao,  Ying Zhu,  B. R. Brooks,  
 G. K. L. Chan,  C. J. Cramer,  M. S. Gordon,  W. J. Hehre,  A. Klamt,  
 M. W. Schmidt,  C. D. Sherrill,  D. G. Truhlar,  A. Aspuru-Guzik,  R. Baer,  
 A. T. Bell,  N. A. Besley,  Jeng-Da Chai,  R. A. DiStasio Jr.,  A. Dreuw,  
 B. D. Dunietz,  T. R. Furlani,  Chao-Ping Hsu,  Yousung Jung,  Jing Kong,  
 D. S. Lambrecht,  WanZhen Liang,  C. Ochsenfeld,  V. A. Rassolov,  
 L. V. Slipchenko,  J. E. Subotnik,  T. Van Voorhis,  J. M. Herbert,  
 A. I. Krylov,  P. M. W. Gill,  M. Head-Gordon

 Contributors to earlier versions of Q-Chem not listed above: 
 R. D. Adamson,  B. Austin,  J. Baker,  G. J. O. Beran,  K. Brandhorst,  
 S. T. Brown,  E. F. C. Byrd,  A. K. Chakraborty,  C.-L. Cheng,  
 Siu Hung Chien,  D. M. Chipman,  D. L. Crittenden,  H. Dachsel,  
 R. J. Doerksen,  A. D. Dutoi,  L. Fusti-Molnar,  W. A. Goddard III,  
 A. Golubeva-Zadorozhnaya,  S. R. Gwaltney,  G. Hawkins,  A. Heyden,  
 S. Hirata,  G. Kedziora,  F. J. Keil,  C. Kelley,  Jihan Kim,  R. A. King,  
 R. Z. Khaliullin,  P. P. Korambath,  W. Kurlancheek,  A. M. Lee,  M. S. Lee,  
 S. V. Levchenko,  Ching Yeh Lin,  D. Liotard,  R. C. Lochan,  I. Lotan,  
 P. E. Maslen,  N. Nair,  D. P. O'Neill,  D. Neuhauser,  E. Neuscamman,  
 C. M. Oana,  R. Olson,  B. Peters,  R. Peverati,  P. A. Pieniazek,  
 Y. M. Rhee,  J. Ritchie,  M. A. Rohrdanz,  E. Rosta,  N. J. Russ,  
 H. F. Schaefer III,  N. E. Schultz,  N. Shenvi,  A. C. Simmonett,  A. Sodt,  
 D. Stuck,  K. S. Thanthiriwatte,  V. Vanovschi,  Tao Wang,  A. Warshel,  
 C. F. Williams,  Q. Wu,  X. Xu,  W. Zhang

 Please cite Q-Chem as follows:
 Y. Shao et al., Mol. Phys. 113, 184-215 (2015)
 DOI: 10.1080/00268976.2014.952696

 Q-Chem 5.0.2 for Intel X86 EM64T Linux

 Parts of Q-Chem use Armadillo 5.200.1 (Boston Tea Smuggler).
 http://arma.sourceforge.net/

 Q-Chem begins on Mon Jun 18 12:10:39 2018  


Host: 0

     Scratch files written to /home/jcartus/scratch/Butadien_12.mol.dir//
 Using version located at /usr/local/qchem/bin/qchem

 Parallel job on  1  processors
Symmetry disabled for AIMD jobs.

Total Memory Limit in MB = 2000
Mega-Array Size in MB = 192

Checking the input file for inconsistencies... 	...done.
Finally everything over in PARseQInput

--------------------------------------------------------------
User input:
--------------------------------------------------------------
$rem
AIMD_STEPS                    400
FOCK_EXTRAP_POINTS            12
MAX_SCF_CYCLES                100
BASIS                         sto-3g
AIMD_INIT_VELOC               thermal
FOCK_EXTRAP_ORDER             6
AIMD_TEMP                     400
AIMD_METHOD                   bomd
TIME_STEP                     20
METHOD                        hf
JOBTYPE                       aimd
$end

$molecule
0 1
C    3.96337    -0.54850    -0.30100
C    4.31081    0.38706    -1.57277
H    3.15383    -1.95195    -0.12226
H    4.64636    -0.47122    0.88931
C    4.20018    0.10936    -3.22498
C    3.10886    0.11528    -4.13628
H    3.68284    0.29486    -5.26512
H    2.14649    -0.44383    -3.90567
H    5.17619    1.51020    -1.63756
H    5.04198    1.09490    -3.63856
$end


--------------------------------------------------------------
 ----------------------------------------------------------------
             Standard Nuclear Orientation (Angstroms)
    I     Atom           X                Y                Z
 ----------------------------------------------------------------
    1      C       3.9633700000    -0.5485000000    -0.3010000000
    2      C       4.3108100000     0.3870600000    -1.5727700000
    3      H       3.1538300000    -1.9519500000    -0.1222600000
    4      H       4.6463600000    -0.4712200000     0.8893100000
    5      C       4.2001800000     0.1093600000    -3.2249800000
    6      C       3.1088600000     0.1152800000    -4.1362800000
    7      H       3.6828400000     0.2948600000    -5.2651200000
    8      H       2.1464900000    -0.4438300000    -3.9056700000
    9      H       5.1761900000     1.5102000000    -1.6375600000
   10      H       5.0419800000     1.0949000000    -3.6385600000
 ----------------------------------------------------------------
 Nuclear Repulsion Energy =    89.0831984056 hartrees
 There are       15 alpha and       15 beta electrons
 Requested basis set is STO-3G
 There are 14 shells and 26 basis functions

 Total QAlloc Memory Limit   2000 MB
 Mega-Array Size       188 MB
 MEM_STATIC part       192 MB

finished with qalloc call

                       Distance Matrix (Angstroms)
             C (  1)   C (  2)   H (  3)   H (  4)   C (  5)   C (  6)
   C (  2)  1.616597
   H (  3)  1.630023  2.985557
   H (  4)  1.374513  2.628893  2.333127
   C (  5)  3.006413  1.679034  3.869201  4.178939
   C (  6)  3.984992  2.844316  4.515287  5.288142  1.421788
   H (  7)  5.043059  3.746504  5.637111  6.276325  2.112871  1.279055
   H (  8)  4.038026  3.288933  4.195635  5.407581  2.233159  1.136636
   H (  9)  2.737804  1.419339  4.286322  3.254507  2.331277  3.530334
   H ( 10)  3.873431  2.302854  5.021232  4.807375  1.360502  2.223586
             H (  7)   H (  8)   H (  9)
   H (  8)  2.180399
   H (  9)  4.106865  4.259300
   H ( 10)  2.265618  3.289818  2.048045

 Job number = 2, Threshold = 1.00E-11
Integral type ranges set in mkLRange.C for JobNum: 2  <1-6|1-6>
Symmetry turned off temporarily
 Using the largest function pair in Schwarz integrals
Total number of integrals generated =            3252
Symmetry turned back on
 A cutoff of  1.0D-11 yielded    102 shell pairs
 There are       372 function pairs
 Job number = 11, Threshold = 1.00E-11
Integral type ranges set in mkLRange.C for JobNum: 11  <1-6|7-7>
Total number of integrals generated =            3720
 Smallest overlap matrix eigenvalue = 2.41E-01
 Multipole matrices computed through 2nd order

 Scale SEOQF with 1.000000e-01/1.000000e-01/1.000000e-01

 Standard Electronic Orientation quadrupole field applied
 Nucleus-field energy     =    -0.0000000081 hartrees
 ENuRep (before)= 89.0831984056
 ENucField = -0.0000000081
 ENuRep (after) = 89.0831983975
 Guess from superposition of atomic densities
 Warning:  Energy on first SCF cycle will be non-variational
 SAD guess density has 30.000000 electrons

 ==================================================
    GEN_SCFMAN: A general SCF calculation manager  
                                                   
    Authors:                                       
        -- Eric Jon Sundstrom 2008-2014            
        -- Paul Horn 2010-2015                     
        -- Yuezhi Mao 2012-                        
        -- Dmitri Zuev 2014                        
        -- Alec White 2015-                        
        -- David Stuck 2015                        
        -- Shaama M.S. 2015                        
        -- Shane Yost 2015-                         
        -- Joonho Lee 2016-                        
        -- David Small 2016-                       
        -- Daniel Levine 2016-                     
        -- Susi Lehtola 2017-                      
        -- Hugh Burton 2017-                       
 ==================================================
 Hartree-Fock
Finding J and K together
 Job number = 22, Threshold = 1.00E-11
Integral type ranges set in mkLRange.C for JobNum: 22  <1-6|1-6>
 MakeJK  time:  CPU       0.11 s  wall       0.12 s
 A restricted SCF calculation will be
 performed using DIIS
 SCF converges when DIIS error is below 1.0e-08
 ---------------------------------------
  Cycle       Energy         DIIS error
 ---------------------------------------
Finding J and K together
 Job number = 22, Threshold = 1.00E-11
Integral type ranges set in mkLRange.C for JobNum: 22  <1-6|1-6>
 MakeJK  time:  CPU       0.16 s  wall       0.19 s
    1    -150.8193550268      1.36e-01  
Finding J and K together
 Job number = 22, Threshold = 1.00E-11
Integral type ranges set in mkLRange.C for JobNum: 22  <1-6|1-6>
 MakeJK  time:  CPU       0.15 s  wall       0.16 s
    2    -152.4748264032      1.29e-02  
Finding J and K together
 Job number = 22, Threshold = 1.00E-11
Integral type ranges set in mkLRange.C for JobNum: 22  <1-6|1-6>
 MakeJK  time:  CPU       0.14 s  wall       0.16 s
    3    -152.5110444766      4.41e-03  
Finding J and K together
 Job number = 22, Threshold = 1.00E-11
Integral type ranges set in mkLRange.C for JobNum: 22  <1-6|1-6>
 MakeJK  time:  CPU       0.15 s  wall       0.16 s
    4    -152.5156998341      1.21e-03  
Finding J and K together
 Job number = 22, Threshold = 1.00E-11
Integral type ranges set in mkLRange.C for JobNum: 22  <1-6|1-6>
 MakeJK  time:  CPU       0.18 s  wall       0.18 s
    5    -152.5160021509      3.83e-04  
Finding J and K together
 Job number = 22, Threshold = 1.00E-11
Integral type ranges set in mkLRange.C for JobNum: 22  <1-6|1-6>
 MakeJK  time:  CPU       0.15 s  wall       0.15 s
    6    -152.5160233685      1.68e-04  
Finding J and K together
 Job number = 22, Threshold = 1.00E-11
Integral type ranges set in mkLRange.C for JobNum: 22  <1-6|1-6>
 MakeJK  time:  CPU       0.13 s  wall       0.13 s
    7    -152.5160298279      6.66e-05  
Finding J and K together
 Job number = 22, Threshold = 1.00E-11
Integral type ranges set in mkLRange.C for JobNum: 22  <1-6|1-6>
 MakeJK  time:  CPU       0.18 s  wall       0.18 s
    8    -152.5160310111      2.59e-05  
Finding J and K together
 Job number = 22, Threshold = 1.00E-11
Integral type ranges set in mkLRange.C for JobNum: 22  <1-6|1-6>
 MakeJK  time:  CPU       0.16 s  wall       0.17 s
    9    -152.5160312503      1.49e-05  
Finding J and K together
 Job number = 22, Threshold = 1.00E-11
Integral type ranges set in mkLRange.C for JobNum: 22  <1-6|1-6>
 MakeJK  time:  CPU       0.15 s  wall       0.15 s
   10    -152.5160313382      4.17e-06  
Finding J and K together
 Job number = 22, Threshold = 1.00E-11
Integral type ranges set in mkLRange.C for JobNum: 22  <1-6|1-6>
 MakeJK  time:  CPU       0.12 s  wall       0.12 s
   11    -152.5160313461      1.23e-06  
Finding J and K together
 Job number = 22, Threshold = 1.00E-11
Integral type ranges set in mkLRange.C for JobNum: 22  <1-6|1-6>
 MakeJK  time:  CPU       0.14 s  wall       0.14 s
   12    -152.5160313468      3.23e-07  
Finding J and K together
 Job number = 22, Threshold = 1.00E-11
Integral type ranges set in mkLRange.C for JobNum: 22  <1-6|1-6>
 MakeJK  time:  CPU       0.16 s  wall       0.28 s
   13    -152.5160313469      9.04e-08  
Finding J and K together
 Job number = 22, Threshold = 1.00E-11
Integral type ranges set in mkLRange.C for JobNum: 22  <1-6|1-6>
 MakeJK  time:  CPU       0.16 s  wall       0.19 s
   14    -152.5160313469      2.92e-08  
   15    -152.5160313469      7.66e-09  Convergence criterion met
 ---------------------------------------
 SCF time:   CPU 2.28s  wall 2.00s 
 Total energy in the final basis set =     -152.5160313469
Wall  1 = 2
Clock 1 = 2.2844290733
 ==================================================
                  Done GEN_SCFMAN                  
 ==================================================

Symmetry turned off temporarily

 --------------------------------------------------------------

                    Orbital Energies (a.u.)
 --------------------------------------------------------------

 Alpha MOs
 -- Occupied --
-11.029 -11.027 -11.027 -11.023  -0.944  -0.839  -0.704  -0.596
 -0.516  -0.470  -0.416  -0.361  -0.350  -0.307  -0.216
 -- Virtual --
  0.194   0.267   0.308   0.406   0.431   0.504   0.521   0.592
  0.720   0.747   0.909
 --------------------------------------------------------------

          Ground-State Mulliken Net Atomic Charges

     Atom                 Charge (a.u.)
  ----------------------------------------
      1 C                    -0.038455
      2 C                    -0.033156
      3 H                     0.013825
      4 H                     0.026096
      5 C                    -0.027508
      6 C                    -0.093015
      7 H                     0.054429
      8 H                     0.066020
      9 H                     0.029044
     10 H                     0.002720
  ----------------------------------------
  Sum of atomic charges =    -0.000000

 -----------------------------------------------------------------
                    Cartesian Multipole Moments
 -----------------------------------------------------------------
    Charge (ESU x 10^10)
                 0.0000
    Dipole Moment (Debye)
         X      -0.0598      Y      -0.1437      Z      -0.1306
       Tot       0.2032
    Quadrupole Moments (Debye-Ang)
        XX     -24.0574     XY       1.3284     YY     -23.2619
        XZ       0.1913     YZ      -0.5862     ZZ     -21.1346
    Octopole Moments (Debye-Ang^2)
       XXX    -281.1846    XXY      12.2268    XYY     -90.6796
       YYY      -1.9769    XXZ      57.4190    XYZ      -6.8506
       YYZ      55.5843    XZZ     -83.2445    YZZ       0.9349
       ZZZ     147.9176
    Hexadecapole Moments (Debye-Ang^3)
      XXXX   -2280.8134   XXXY      65.2358   XXYY    -374.8424
      XYYY     -14.2250   YYYY     -62.6117   XXXZ     631.5716
      XXYZ     -32.9119   XYYZ     203.2363   YYYZ      31.0804
      XXZZ    -531.3203   XYZZ      13.5738   YYZZ    -209.1490
      XZZZ     545.2447   YZZZ      26.6836   ZZZZ   -1053.4416
 -----------------------------------------------------------------
drvman_main.C: 73: calling DrvMan  Calculating analytic gradient of the SCF energy
drvman.C : 218: Calculating analytic gradient of the SCF energy
drvman.C: 244: calling SCF_Grad for normal SCF gradient
 Job number = 111, Threshold = 1.00E-11
Integral type ranges set in mkLRange.C for JobNum: 11  <1-6|7-7>
Finding J and K together
 ML is being used
 Job number = 122, Threshold = 1.00E-11
Integral type ranges set in mkLRange.C for JobNum: 22  <1-6|1-6>
Total number of integrals generated =           69366
 MakeJK  time:  CPU       0.40 s  wall       0.41 s
 Gradient of SCF Energy
            1           2           3           4           5           6
    1  -0.0523368  -0.0322745  -0.0731908   0.0678992   0.0172355  -0.1269291
    2  -0.0025614   0.0594787  -0.1360978  -0.0106310  -0.1641984   0.0356846
    3   0.0350828  -0.0685305   0.0356734   0.1161529   0.0022030   0.0071287
            7           8           9          10
    1   0.0812557  -0.0288684   0.0853703   0.0618391
    2   0.0162220  -0.0224396   0.1126911   0.1118517
    3  -0.0850390   0.0236308  -0.0378364  -0.0284658
 Max gradient component =       1.642E-01
 RMS gradient           =       7.208E-02
drvman.C: 248: out of SCF_Grad for normal SCF gradient
 Gradient time:  CPU 0.42 s  wall 0.42 s
 ------------------------------------------------------------------------------
                     drvman        : Timing summary (seconds)
 ------------------------------------------------------------------------------
     job step          cpu (% of tot)      sys (% of tot)     wall (% of tot)
 ------------------------------------------------------------------------------
 ------------------------------------------------------------------------------
   Grand Totals     0.4160E+00          0.2000E-05          0.4248E+00
 ------------------------------------------------------------------------------
drvman_main.C: 77: out of DrvMan =======================================================
            AB INITIO MOLECULAR DYNAMICS
=======================================================
Created directory /home/jcartus/scratch/Butadien_12.mol.dir/AIMD
AIMD will take 400 BOMD steps Velocity Verlet integration
Time step = 20.00000 a.u. ( = 0.48378 fs)
Total simulation time requested = 193.511 fs
Integral threshold = 10**(-11)
SCF convergence threshold = 10**(-8)
Generating viewable xyz trajectory,
 file (in Angstroms) at AIMD/View.xyz
Choosing nuclear velocities from Maxwell-Boltzmann
Velocities sampled from Maxwell-Boltzmann at T = 400.0 K
sqrt(kT/m) and (vx,vy,vz) for each atom:
  1   2.4064e-04   8.57e-05  -2.88e-04  -8.75e-05 
  2   2.4064e-04   9.63e-05  -6.41e-05   1.65e-04 
  3   8.3036e-04   2.65e-03  -2.04e-04  -1.79e-03 
  4   8.3036e-04   6.84e-04  -4.85e-04   9.03e-04 
  5   2.4064e-04  -3.36e-05   5.07e-05   6.44e-05 
  6   2.4064e-04   5.83e-04   6.29e-05  -5.85e-05 
  7   8.3036e-04  -9.79e-04  -8.62e-04  -1.29e-03 
  8   8.3036e-04  -1.21e-03   2.97e-04   1.08e-03 
  9   8.3036e-04   6.03e-04   9.96e-04   1.64e-03 
 10   8.3036e-04   8.08e-04  -3.48e-04  -9.61e-04 
T(nuclear) = 0.02708877 a.u.
v(c.o.m.) = (  2.1015e-04,  -6.4223e-05,   1.0761e-05)
T(c.o.m.) = 2.38433e-03 a.u.
kT/2 = 0.000633 a.u.
Tx   = 0.013938 a.u.
Ty   = 0.003065 a.u.
Tz   = 0.010087 a.u.
Mean velocities (a.u.):   3.2900e-04  -8.4394e-05  -3.3629e-05
Removing c.o.m. velocity
T(nuclear) = 0.02788020 a.u.
v(c.o.m.) = ( -2.3665e-20,   2.0337e-21,   1.1269e-20)
T(c.o.m.) = 3.40457e-35 a.u.
kT   = 0.001267 a.u. = 0.79 kcal/mol
Tx   = 0.014518 a.u. = 9.11 kcal/mol
Ty   = 0.003221 a.u. = 2.02 kcal/mol
Tz   = 0.010142 a.u. = 6.36 kcal/mol
Initial velocities in m/s
  1     -1.9587e+01     -5.6665e+02     -2.0204e+02 
  2      3.7095e+00     -7.6858e+01      3.5124e+02 
  3      3.3292e+03      3.0777e+02     -4.0436e+03 
  4     -9.6876e+02     -3.0745e+02      1.8497e+03 
  5     -2.8057e+02      1.7419e+02      1.3028e+02 
  6      1.0687e+03      2.0089e+02     -1.3868e+02 
  7     -4.6070e+03     -1.1329e+03     -2.9527e+03 
  8     -5.1037e+03      1.4032e+03      2.2290e+03 
  9     -1.1469e+03      2.9334e+03      3.4688e+03 
 10     -6.9836e+02     -7.9923e+00     -2.2277e+03 
----------------------------------------------------------------------------
       Nuclear coordinates (Angst) and velocities (a.u.)
----------------------------------------------------------------------------
             x        y        z            v_x         v_y        v_z
----------------------------------------------------------------------------
1      C    3.9634  -0.5485  -0.3010    -8.9535e-06  -2.5902e-04  -9.2354e-05
2      C    4.3108   0.3871  -1.5728     1.6956e-06  -3.5132e-05   1.6055e-04
3      H    3.1538  -1.9520  -0.1223     1.5218e-03   1.4068e-04  -1.8483e-03
4      H    4.6464  -0.4712   0.8893    -4.4282e-04  -1.4054e-04   8.4552e-04
5      C    4.2002   0.1094  -3.2250    -1.2825e-04   7.9624e-05   5.9550e-05
6      C    3.1089   0.1153  -4.1363     4.8853e-04   9.1829e-05  -6.3391e-05
7      H    3.6828   0.2949  -5.2651    -2.1059e-03  -5.1783e-04  -1.3497e-03
8      H    2.1465  -0.4438  -3.9057    -2.3329e-03   6.4140e-04   1.0189e-03
9      H    5.1762   1.5102  -1.6376    -5.2427e-04   1.3409e-03   1.5856e-03
10     H    5.0420   1.0949  -3.6386    -3.1922e-04  -3.6533e-06  -1.0183e-03
----------------------------------------------------------------------------
Write nuclear velocities every 1 time steps

TIME STEP #1 (t = 0.000 a.u. = 0.00000 fs)
--------------------------------------
 Instantaneous Temperature = 586.9 K
 ----------------------------------------------------------------
             Standard Nuclear Orientation (Angstroms)
    I     Atom           X                Y                Z
 ----------------------------------------------------------------
    1      C       3.9635284598    -0.5512289269    -0.3021471767
    2      C       4.3109840981     0.3864004038    -1.5707392223
    3      H       3.1741520848    -1.9426207610    -0.1438770772
    4      H       4.6377618320    -0.4720949586     0.8915672028
    5      C       4.1987392693     0.1109971370    -3.2243604100
    6      C       3.1146444810     0.1160792228    -4.1369853873
    7      H       3.6558713478     0.2884449828    -5.2745055461
    8      H       2.1234626059    -0.4357489764    -3.8962478323
    9      H       5.1657233590     1.5178991372    -1.6185989605
   10      H       5.0350390434     1.0884177658    -3.6476970520
 ----------------------------------------------------------------
 Nuclear Repulsion Energy =    89.1206800252 hartrees
 There are       15 alpha and       15 beta electrons

                       Distance Matrix (Angstroms)
             C (  1)   C (  2)   H (  3)   H (  4)   C (  5)   C (  6)
   C (  2)  1.615302
   H (  3)  1.607525  2.958490
   H (  4)  1.373247  2.628070  2.318781
   C (  5)  3.005528  1.680151  3.841419  4.180143
   C (  6)  3.983954  2.844279  4.492961  5.286982  1.417100
   H (  7)  5.052134  3.762533  5.615430  6.289911  2.128212  1.271451
   H (  8)  4.039398  3.296842  4.177906  5.407975  2.248808  1.159703
   H (  9)  2.731228  1.418858  4.256332  3.246499  2.343694  3.537555
   H ( 10)  3.876762  2.308861  4.992680  4.816425  1.354239  2.207433
             H (  7)   H (  8)   H (  9)
   H (  8)  2.184566
   H (  9)  4.142084  4.273146
   H ( 10)  2.277842  3.295776  2.078165

 Applying Cartesian multipole field
    Component          Value
    ---------          -----
     (2,0,0)        1.00000E-11
     (0,2,0)        2.00000E-11
     (0,0,2)       -3.00000E-11
 Nucleus-field energy     =    -0.0000000081 hartrees
 ENuRep (before)= 89.1206800252
 ENucField = -0.0000000081
 ENuRep (after) = 89.1206800171
 Job number = 2, Threshold = 1.00E-11
Integral type ranges set in mkLRange.C for JobNum: 2  <1-6|1-6>
Symmetry turned off temporarily
Symmetry turned back on
 Job number = 11, Threshold = 1.00E-11
Integral type ranges set in mkLRange.C for JobNum: 11  <1-6|7-7>
 Smallest overlap matrix eigenvalue = 2.40E-01
 Multipole matrices computed through 2nd order
 Guess from superposition of atomic densities
 Warning:  Energy on first SCF cycle will be non-variational
 SAD guess density has 30.000000 electrons
 SCF convergence criterion is 10**(-8)
 A restricted Hartree-Fock SCF calculation will be
 performed using Pulay DIIS extrapolation
 SCF converges when DIIS error is below 1.0E-08
Finding J and K together
 Job number = 22, Threshold = 1.00E-11
Integral type ranges set in mkLRange.C for JobNum: 22  <1-6|1-6>
 MakeJK  time:  CPU       0.11 s  wall       0.12 s
Fock build time:  0.11 s (CPU) 0.12 s (wall)
DIIS Errors:  Max 9.19E-01 RMS 1.36E-01

Current DIIS subspace size = 1
REM_GRID_RESTART_DIIS = 0

 ---------------------------------------
  Cycle       Energy         DIIS Error
 ---------------------------------------
    1    -150.8224047026      1.36E-01  00000
Finding J and K together
 Job number = 22, Threshold = 1.00E-11
Integral type ranges set in mkLRange.C for JobNum: 22  <1-6|1-6>
 MakeJK  time:  CPU       0.15 s  wall       0.15 s
Fock build time:  0.15 s (CPU) 0.15 s (wall)
DIIS Errors:  Max 5.27E-02 RMS 1.28E-02

Current DIIS subspace size = 2
REM_GRID_RESTART_DIIS = 0

    2    -152.4886190759      1.28E-02  00000
Finding J and K together
 Job number = 22, Threshold = 1.00E-11
Integral type ranges set in mkLRange.C for JobNum: 22  <1-6|1-6>
 MakeJK  time:  CPU       0.14 s  wall       0.15 s
Fock build time:  0.14 s (CPU) 0.15 s (wall)
DIIS Errors:  Max 2.34E-02 RMS 4.37E-03

Current DIIS subspace size = 3
REM_GRID_RESTART_DIIS = 0

    3    -152.5245786726      4.37E-03  00000
Finding J and K together
 Job number = 22, Threshold = 1.00E-11
Integral type ranges set in mkLRange.C for JobNum: 22  <1-6|1-6>
 MakeJK  time:  CPU       0.14 s  wall       0.15 s
Fock build time:  0.14 s (CPU) 0.15 s (wall)
DIIS Errors:  Max 6.71E-03 RMS 1.05E-03

Current DIIS subspace size = 4
REM_GRID_RESTART_DIIS = 0

    4    -152.5291729608      1.05E-03  00000
Finding J and K together
 Job number = 22, Threshold = 1.00E-11
Integral type ranges set in mkLRange.C for JobNum: 22  <1-6|1-6>
 MakeJK  time:  CPU       0.17 s  wall       0.20 s
Fock build time:  0.17 s (CPU) 0.20 s (wall)
DIIS Errors:  Max 8.48E-04 RMS 2.11E-04

Current DIIS subspace size = 5
REM_GRID_RESTART_DIIS = 0

    5    -152.5294232046      2.11E-04  00000
Finding J and K together
 Job number = 22, Threshold = 1.00E-11
Integral type ranges set in mkLRange.C for JobNum: 22  <1-6|1-6>
 MakeJK  time:  CPU       0.16 s  wall       0.17 s
Fock build time:  0.16 s (CPU) 0.17 s (wall)
DIIS Errors:  Max 4.25E-04 RMS 9.01E-05

Current DIIS subspace size = 6
REM_GRID_RESTART_DIIS = 0

    6    -152.5294364648      9.01E-05  00000
Finding J and K together
 Job number = 22, Threshold = 1.00E-11
Integral type ranges set in mkLRange.C for JobNum: 22  <1-6|1-6>
 MakeJK  time:  CPU       0.17 s  wall       0.17 s
Fock build time:  0.17 s (CPU) 0.17 s (wall)
DIIS Errors:  Max 2.76E-04 RMS 3.92E-05

Current DIIS subspace size = 7
REM_GRID_RESTART_DIIS = 0

    7    -152.5294391638      3.92E-05  00000
Finding J and K together
 Job number = 22, Threshold = 1.00E-11
Integral type ranges set in mkLRange.C for JobNum: 22  <1-6|1-6>
 MakeJK  time:  CPU       0.16 s  wall       0.17 s
Fock build time:  0.17 s (CPU) 0.17 s (wall)
DIIS Errors:  Max 1.46E-04 RMS 2.05E-05

Current DIIS subspace size = 8
REM_GRID_RESTART_DIIS = 0

    8    -152.5294395732      2.05E-05  00000
Finding J and K together
 Job number = 22, Threshold = 1.00E-11
Integral type ranges set in mkLRange.C for JobNum: 22  <1-6|1-6>
 MakeJK  time:  CPU       0.19 s  wall       0.23 s
Fock build time:  0.19 s (CPU) 0.23 s (wall)
DIIS Errors:  Max 5.74E-05 RMS 7.96E-06

Current DIIS subspace size = 9
REM_GRID_RESTART_DIIS = 0

    9    -152.5294397341      7.96E-06  00000
Finding J and K together
 Job number = 22, Threshold = 1.00E-11
Integral type ranges set in mkLRange.C for JobNum: 22  <1-6|1-6>
 MakeJK  time:  CPU       0.17 s  wall       0.17 s
Fock build time:  0.17 s (CPU) 0.17 s (wall)
DIIS Errors:  Max 2.46E-05 RMS 4.18E-06

Current DIIS subspace size = 10
REM_GRID_RESTART_DIIS = 0

   10    -152.5294397536      4.18E-06  00000
Finding J and K together
 Job number = 22, Threshold = 1.00E-11
Integral type ranges set in mkLRange.C for JobNum: 22  <1-6|1-6>
 MakeJK  time:  CPU       0.16 s  wall       0.16 s
Fock build time:  0.16 s (CPU) 0.16 s (wall)
DIIS Errors:  Max 7.46E-06 RMS 1.04E-06

Current DIIS subspace size = 11
REM_GRID_RESTART_DIIS = 0

   11    -152.5294397591      1.04E-06  00000
Finding J and K together
 Job number = 22, Threshold = 1.00E-11
Integral type ranges set in mkLRange.C for JobNum: 22  <1-6|1-6>
 MakeJK  time:  CPU       0.15 s  wall       0.17 s
Fock build time:  0.15 s (CPU) 0.17 s (wall)
DIIS Errors:  Max 1.44E-06 RMS 2.80E-07

Current DIIS subspace size = 12
REM_GRID_RESTART_DIIS = 0

   12    -152.5294397597      2.80E-07  00000
Finding J and K together
 Job number = 22, Threshold = 1.00E-11
Integral type ranges set in mkLRange.C for JobNum: 22  <1-6|1-6>
 MakeJK  time:  CPU       0.16 s  wall       0.16 s
Fock build time:  0.16 s (CPU) 0.16 s (wall)
DIIS Errors:  Max 3.49E-07 RMS 7.74E-08

Current DIIS subspace size = 13
REM_GRID_RESTART_DIIS = 0

   13    -152.5294397597      7.74E-08  00000
Finding J and K together
 Job number = 22, Threshold = 1.00E-11
Integral type ranges set in mkLRange.C for JobNum: 22  <1-6|1-6>
 MakeJK  time:  CPU       0.16 s  wall       0.16 s
Fock build time:  0.16 s (CPU) 0.16 s (wall)
DIIS Errors:  Max 1.61E-07 RMS 2.60E-08

Current DIIS subspace size = 14
REM_GRID_RESTART_DIIS = 0

   14    -152.5294397597      2.60E-08  00000
Finding J and K together
 Job number = 22, Threshold = 1.00E-11
Integral type ranges set in mkLRange.C for JobNum: 22  <1-6|1-6>
 MakeJK  time:  CPU       0.16 s  wall       0.16 s
Fock build time:  0.16 s (CPU) 0.16 s (wall)
DIIS Errors:  Max 4.51E-08 RMS 7.13E-09

Current DIIS subspace size = 15
REM_GRID_RESTART_DIIS = 0

   15    -152.5294397597      7.13E-09  00000 Convergence criterion met
 ---------------------------------------
 SCF time:  CPU 2.37 s  wall 2.52 s
 SCF   energy in the final basis set = -152.52943976
 Total energy in the final basis set = -152.52943976
drvman_main.C: 73: calling DrvMan  Calculating analytic gradient of the SCF energy
drvman.C : 218: Calculating analytic gradient of the SCF energy
drvman.C: 244: calling SCF_Grad for normal SCF gradient
 Job number = 111, Threshold = 1.00E-11
Integral type ranges set in mkLRange.C for JobNum: 11  <1-6|7-7>
Finding J and K together
 ML is being used
 Job number = 122, Threshold = 1.00E-11
Integral type ranges set in mkLRange.C for JobNum: 22  <1-6|1-6>
 MakeJK  time:  CPU       0.44 s  wall       0.54 s
 Gradient of SCF Energy
            1           2           3           4           5           6
    1  -0.0518161  -0.0309231  -0.0724520   0.0670836   0.0138378  -0.1027014
    2  -0.0020915   0.0583673  -0.1369656  -0.0104381  -0.1633373   0.0437285
    3   0.0363579  -0.0697594   0.0339728   0.1167280   0.0034908   0.0042887
            7           8           9          10
    1   0.0753624  -0.0430081   0.0846921   0.0599250
    2   0.0146856  -0.0286059   0.1140138   0.1106432
    3  -0.0862598   0.0261505  -0.0345264  -0.0304432
 Max gradient component =       1.633E-01
 RMS gradient           =       7.090E-02
drvman.C: 248: out of SCF_Grad for normal SCF gradient
 Gradient time:  CPU 0.46 s  wall 0.58 s
 ------------------------------------------------------------------------------
                     drvman        : Timing summary (seconds)
 ------------------------------------------------------------------------------
     job step          cpu (% of tot)      sys (% of tot)     wall (% of tot)
 ------------------------------------------------------------------------------
 ------------------------------------------------------------------------------
   Grand Totals     0.4600E+00          0.2000E-05          0.5776E+00
 ------------------------------------------------------------------------------
drvman_main.C: 77: out of DrvMan  Time for this dynamics step: 2.9 s (CPU) 3.1 s (wall)

TIME STEP #2 (t = 20.000 a.u. = 0.48378 fs)
--------------------------------------
 Instantaneous Temperature = 869.2 K
 ----------------------------------------------------------------
             Standard Nuclear Orientation (Angstroms)
    I     Atom           X                Y                Z
 ----------------------------------------------------------------
    1      C       3.9641883199    -0.5539376158    -0.3036461713
    2      C       4.3114574248     0.3851760147    -1.5680334152
    3      H       3.2028218173    -1.9175108553    -0.1694083744
    4      H       4.6214345445    -0.4717672734     0.8803754381
    5      C       4.1971646372     0.1142148125    -3.2237745993
    6      C       3.1214227558     0.1164553055    -4.1377322746
    7      H       3.6202197270     0.2803379443    -5.2739525635
    8      H       2.1053904464    -0.4243720922    -3.8898386317
    9      H       5.1454988106     1.5124620304    -1.5956599182
   10      H       5.0211937560     1.0691876387    -3.6533265527
 ----------------------------------------------------------------
 Nuclear Repulsion Energy =    89.3879674970 hartrees
 There are       15 alpha and       15 beta electrons

                       Distance Matrix (Angstroms)
             C (  1)   C (  2)   H (  3)   H (  4)   C (  5)   C (  6)
   C (  2)  1.612825
   H (  3)  1.567492  2.913347
   H (  4)  1.356699  2.612498  2.281377
   C (  5)  3.004639  1.681654  3.800760  4.167425
   C (  6)  3.982449  2.844599  4.459959  5.270431  1.411575
   H (  7)  5.051562  3.771291  5.573251  6.280434  2.136280  1.251660
   H (  8)  4.041373  3.303465  4.156371  5.393298  2.260362  1.177398
   H (  9)  2.708284  1.402556  4.192004  3.215985  2.346314  3.536644
   H ( 10)  3.869387  2.306522  4.936044  4.805081  1.332483  2.179788
             H (  7)   H (  8)   H (  9)
   H (  8)  2.169584
   H (  9)  4.168266  4.272803
   H ( 10)  2.282858  3.284595  2.108539

 Applying Cartesian multipole field
    Component          Value
    ---------          -----
     (2,0,0)        1.00000E-11
     (0,2,0)        2.00000E-11
     (0,0,2)       -3.00000E-11
 Nucleus-field energy     =    -0.0000000082 hartrees
 ENuRep (before)= 89.3879674970
 ENucField = -0.0000000082
 ENuRep (after) = 89.3879674889
 Job number = 2, Threshold = 1.00E-11
Integral type ranges set in mkLRange.C for JobNum: 2  <1-6|1-6>
Symmetry turned off temporarily
Symmetry turned back on
 Job number = 11, Threshold = 1.00E-11
Integral type ranges set in mkLRange.C for JobNum: 11  <1-6|7-7>
 Smallest overlap matrix eigenvalue = 2.37E-01
 Multipole matrices computed through 2nd order
 Guess from superposition of atomic densities
 Warning:  Energy on first SCF cycle will be non-variational
 SAD guess density has 30.000000 electrons
 SCF convergence criterion is 10**(-8)
 A restricted Hartree-Fock SCF calculation will be
 performed using Pulay DIIS extrapolation
 SCF converges when DIIS error is below 1.0E-08
Finding J and K together
 Job number = 22, Threshold = 1.00E-11
Integral type ranges set in mkLRange.C for JobNum: 22  <1-6|1-6>
 MakeJK  time:  CPU       0.12 s  wall       0.16 s
Fock build time:  0.12 s (CPU) 0.16 s (wall)
DIIS Errors:  Max 9.29E-01 RMS 1.38E-01

Current DIIS subspace size = 1
REM_GRID_RESTART_DIIS = 0

 ---------------------------------------
  Cycle       Energy         DIIS Error
 ---------------------------------------
    1    -150.8652419172      1.38E-01  00000
Finding J and K together
 Job number = 22, Threshold = 1.00E-11
Integral type ranges set in mkLRange.C for JobNum: 22  <1-6|1-6>
 MakeJK  time:  CPU       0.16 s  wall       0.23 s
Fock build time:  0.16 s (CPU) 0.23 s (wall)
DIIS Errors:  Max 5.37E-02 RMS 1.28E-02

Current DIIS subspace size = 2
REM_GRID_RESTART_DIIS = 0

    2    -152.5238405919      1.28E-02  00000
Finding J and K together
 Job number = 22, Threshold = 1.00E-11
Integral type ranges set in mkLRange.C for JobNum: 22  <1-6|1-6>
 MakeJK  time:  CPU       0.17 s  wall       0.23 s
Fock build time:  0.17 s (CPU) 0.23 s (wall)
DIIS Errors:  Max 2.35E-02 RMS 4.29E-03

Current DIIS subspace size = 3
REM_GRID_RESTART_DIIS = 0

    3    -152.5588706892      4.29E-03  00000
Finding J and K together
 Job number = 22, Threshold = 1.00E-11
Integral type ranges set in mkLRange.C for JobNum: 22  <1-6|1-6>
 MakeJK  time:  CPU       0.18 s  wall       0.18 s
Fock build time:  0.18 s (CPU) 0.19 s (wall)
DIIS Errors:  Max 7.03E-03 RMS 1.05E-03

Current DIIS subspace size = 4
REM_GRID_RESTART_DIIS = 0

    4    -152.5632427239      1.05E-03  00000
Finding J and K together
 Job number = 22, Threshold = 1.00E-11
Integral type ranges set in mkLRange.C for JobNum: 22  <1-6|1-6>
 MakeJK  time:  CPU       0.18 s  wall       0.18 s
Fock build time:  0.18 s (CPU) 0.18 s (wall)
DIIS Errors:  Max 2.41E-03 RMS 3.94E-04

Current DIIS subspace size = 5
REM_GRID_RESTART_DIIS = 0

    5    -152.5634425200      3.94E-04  00000
Finding J and K together
 Job number = 22, Threshold = 1.00E-11
Integral type ranges set in mkLRange.C for JobNum: 22  <1-6|1-6>
 MakeJK  time:  CPU       0.18 s  wall       0.18 s
Fock build time:  0.18 s (CPU) 0.18 s (wall)
DIIS Errors:  Max 8.24E-04 RMS 1.56E-04

Current DIIS subspace size = 6
REM_GRID_RESTART_DIIS = 0

    6    -152.5634632101      1.56E-04  00000
Finding J and K together
 Job number = 22, Threshold = 1.00E-11
Integral type ranges set in mkLRange.C for JobNum: 22  <1-6|1-6>
 MakeJK  time:  CPU       0.18 s  wall       0.18 s
Fock build time:  0.18 s (CPU) 0.18 s (wall)
DIIS Errors:  Max 2.73E-04 RMS 4.45E-05

Current DIIS subspace size = 7
REM_GRID_RESTART_DIIS = 0

    7    -152.5634685410      4.45E-05  00000
Finding J and K together
 Job number = 22, Threshold = 1.00E-11
Integral type ranges set in mkLRange.C for JobNum: 22  <1-6|1-6>
 MakeJK  time:  CPU       0.18 s  wall       0.20 s
Fock build time:  0.18 s (CPU) 0.20 s (wall)
DIIS Errors:  Max 1.15E-04 RMS 1.99E-05

Current DIIS subspace size = 8
REM_GRID_RESTART_DIIS = 0

    8    -152.5634692401      1.99E-05  00000
Finding J and K together
 Job number = 22, Threshold = 1.00E-11
Integral type ranges set in mkLRange.C for JobNum: 22  <1-6|1-6>
 MakeJK  time:  CPU       0.18 s  wall       0.18 s
Fock build time:  0.18 s (CPU) 0.18 s (wall)
DIIS Errors:  Max 5.98E-05 RMS 9.65E-06

Current DIIS subspace size = 9
REM_GRID_RESTART_DIIS = 0

    9    -152.5634693781      9.65E-06  00000
Finding J and K together
 Job number = 22, Threshold = 1.00E-11
Integral type ranges set in mkLRange.C for JobNum: 22  <1-6|1-6>
 MakeJK  time:  CPU       0.18 s  wall       0.19 s
Fock build time:  0.18 s (CPU) 0.19 s (wall)
DIIS Errors:  Max 2.11E-05 RMS 2.88E-06

Current DIIS subspace size = 10
REM_GRID_RESTART_DIIS = 0

   10    -152.5634694136      2.88E-06  00000
Finding J and K together
 Job number = 22, Threshold = 1.00E-11
Integral type ranges set in mkLRange.C for JobNum: 22  <1-6|1-6>
 MakeJK  time:  CPU       0.18 s  wall       0.18 s
Fock build time:  0.18 s (CPU) 0.18 s (wall)
DIIS Errors:  Max 6.21E-06 RMS 8.64E-07

Current DIIS subspace size = 11
REM_GRID_RESTART_DIIS = 0

   11    -152.5634694178      8.64E-07  00000
Finding J and K together
 Job number = 22, Threshold = 1.00E-11
Integral type ranges set in mkLRange.C for JobNum: 22  <1-6|1-6>
 MakeJK  time:  CPU       0.18 s  wall       0.18 s
Fock build time:  0.18 s (CPU) 0.18 s (wall)
DIIS Errors:  Max 1.25E-06 RMS 2.09E-07

Current DIIS subspace size = 12
REM_GRID_RESTART_DIIS = 0

   12    -152.5634694182      2.09E-07  00000
Finding J and K together
 Job number = 22, Threshold = 1.00E-11
Integral type ranges set in mkLRange.C for JobNum: 22  <1-6|1-6>
 MakeJK  time:  CPU       0.17 s  wall       0.18 s
Fock build time:  0.17 s (CPU) 0.18 s (wall)
DIIS Errors:  Max 2.21E-07 RMS 5.56E-08

Current DIIS subspace size = 13
REM_GRID_RESTART_DIIS = 0

   13    -152.5634694182      5.56E-08  00000
Finding J and K together
 Job number = 22, Threshold = 1.00E-11
Integral type ranges set in mkLRange.C for JobNum: 22  <1-6|1-6>
 MakeJK  time:  CPU       0.16 s  wall       0.17 s
Fock build time:  0.16 s (CPU) 0.17 s (wall)
DIIS Errors:  Max 9.99E-08 RMS 1.91E-08

Current DIIS subspace size = 14
REM_GRID_RESTART_DIIS = 0

   14    -152.5634694182      1.91E-08  00000
Finding J and K together
 Job number = 22, Threshold = 1.00E-11
Integral type ranges set in mkLRange.C for JobNum: 22  <1-6|1-6>
 MakeJK  time:  CPU       0.17 s  wall       0.18 s
Fock build time:  0.17 s (CPU) 0.18 s (wall)
DIIS Errors:  Max 3.24E-08 RMS 5.67E-09

Current DIIS subspace size = 15
REM_GRID_RESTART_DIIS = 0

   15    -152.5634694182      5.67E-09  00000 Convergence criterion met
 ---------------------------------------
 SCF time:  CPU 2.58 s  wall 2.84 s
 SCF   energy in the final basis set = -152.56346942
 Total energy in the final basis set = -152.56346942
drvman_main.C: 73: calling DrvMan  Calculating analytic gradient of the SCF energy
drvman.C : 218: Calculating analytic gradient of the SCF energy
drvman.C: 244: calling SCF_Grad for normal SCF gradient
 Job number = 111, Threshold = 1.00E-11
Integral type ranges set in mkLRange.C for JobNum: 11  <1-6|7-7>
Finding J and K together
 ML is being used
 Job number = 122, Threshold = 1.00E-11
Integral type ranges set in mkLRange.C for JobNum: 22  <1-6|1-6>
 MakeJK  time:  CPU       0.45 s  wall       0.47 s
 Gradient of SCF Energy
            1           2           3           4           5           6
    1  -0.0501000  -0.0280534  -0.0714187   0.0647575   0.0123026  -0.0791867
    2  -0.0017893   0.0590590  -0.1374612  -0.0105071  -0.1597342   0.0501188
    3   0.0405141  -0.0708541   0.0322340   0.1146929   0.0032824  -0.0014216
            7           8           9          10
    1   0.0669689  -0.0535222   0.0825241   0.0557279
    2   0.0123004  -0.0322350   0.1135162   0.1067324
    3  -0.0833540   0.0273970  -0.0310238  -0.0314670
 Max gradient component =       1.597E-01
 RMS gradient           =       6.899E-02
drvman.C: 248: out of SCF_Grad for normal SCF gradient
 Gradient time:  CPU 0.47 s  wall 0.49 s
 ------------------------------------------------------------------------------
                     drvman        : Timing summary (seconds)
 ------------------------------------------------------------------------------
     job step          cpu (% of tot)      sys (% of tot)     wall (% of tot)
 ------------------------------------------------------------------------------
 ------------------------------------------------------------------------------
   Grand Totals     0.4720E+00          0.1000E-05          0.4898E+00
 ------------------------------------------------------------------------------
drvman_main.C: 77: out of DrvMan  Time for this dynamics step: 3.1 s (CPU) 3.4 s (wall)

TIME STEP #3 (t = 40.000 a.u. = 0.96755 fs)
--------------------------------------
 Instantaneous Temperature = 1583.1 K
 ----------------------------------------------------------------
             Standard Nuclear Orientation (Angstroms)
    I     Atom           X                Y                Z
 ----------------------------------------------------------------
    1      C       3.9653329743    -0.5566289904    -0.3055372019
    2      C       4.3122022113     0.3833801389    -1.5646419858
    3      H       3.2397201416    -1.8765631839    -0.1986535543
    4      H       4.5976461357    -0.4702290008     0.8559691846
    5      C       4.1954709587     0.1189781613    -3.2232205508
    6      C       3.1289672834     0.1163464120    -4.1384654058
    7      H       3.5768522008     0.2708136974    -5.2637958487
    8      H       2.0934849156    -0.4092812166    -3.8865860070
    9      H       5.1157661501     1.4939460175    -1.5691464352
   10      H       5.0009277065     1.0376602087    -3.6553305471
 ----------------------------------------------------------------
 Nuclear Repulsion Energy =    89.8938773664 hartrees
 There are       15 alpha and       15 beta electrons

                       Distance Matrix (Angstroms)
             C (  1)   C (  2)   H (  3)   H (  4)   C (  5)   C (  6)
   C (  2)  1.609124
   H (  3)  1.510021  2.850173
   H (  4)  1.325286  2.582535  2.221254
   C (  5)  3.003712  1.683573  3.747486  4.141099
   C (  6)  3.980420  2.845333  4.416568  5.238842  1.405386
   H (  7)  5.041816  3.773215  5.511856  6.248415  2.137683  1.220995
   H (  8)  4.043444  3.307936  4.131297  5.363429  2.266596  1.188256
   H (  9)  2.669281  1.370800  4.093670  3.163482  2.339539  3.527967
   H ( 10)  3.851666  2.296389  4.852130  4.773698  1.295938  2.141606
             H (  7)   H (  8)   H (  9)
   H (  8)  2.135325
   H (  9)  4.185062  4.257580
   H ( 10)  2.281054  3.255817  2.138586

 Applying Cartesian multipole field
    Component          Value
    ---------          -----
     (2,0,0)        1.00000E-11
     (0,2,0)        2.00000E-11
     (0,0,2)       -3.00000E-11
 Nucleus-field energy     =    -0.0000000082 hartrees
 ENuRep (before)= 89.8938773664
 ENucField = -0.0000000082
 ENuRep (after) = 89.8938773583
 Job number = 2, Threshold = 1.00E-11
Integral type ranges set in mkLRange.C for JobNum: 2  <1-6|1-6>
Symmetry turned off temporarily
Symmetry turned back on
 Job number = 11, Threshold = 1.00E-11
Integral type ranges set in mkLRange.C for JobNum: 11  <1-6|7-7>
 Smallest overlap matrix eigenvalue = 2.33E-01
 Multipole matrices computed through 2nd order
 Guess from superposition of atomic densities
 Warning:  Energy on first SCF cycle will be non-variational
 SAD guess density has 30.000000 electrons
 SCF convergence criterion is 10**(-8)
 A restricted Hartree-Fock SCF calculation will be
 performed using Pulay DIIS extrapolation
 SCF converges when DIIS error is below 1.0E-08
Finding J and K together
 Job number = 22, Threshold = 1.00E-11
Integral type ranges set in mkLRange.C for JobNum: 22  <1-6|1-6>
 MakeJK  time:  CPU       0.14 s  wall       0.15 s
Fock build time:  0.14 s (CPU) 0.15 s (wall)
DIIS Errors:  Max 9.41E-01 RMS 1.41E-01

Current DIIS subspace size = 1
REM_GRID_RESTART_DIIS = 0

 ---------------------------------------
  Cycle       Energy         DIIS Error
 ---------------------------------------
    1    -150.9520883527      1.41E-01  00000
Finding J and K together
 Job number = 22, Threshold = 1.00E-11
Integral type ranges set in mkLRange.C for JobNum: 22  <1-6|1-6>
 MakeJK  time:  CPU       0.18 s  wall       0.20 s
Fock build time:  0.18 s (CPU) 0.20 s (wall)
DIIS Errors:  Max 5.50E-02 RMS 1.27E-02

Current DIIS subspace size = 2
REM_GRID_RESTART_DIIS = 0

    2    -152.5784572671      1.27E-02  00000
Finding J and K together
 Job number = 22, Threshold = 1.00E-11
Integral type ranges set in mkLRange.C for JobNum: 22  <1-6|1-6>
 MakeJK  time:  CPU       0.18 s  wall       0.21 s
Fock build time:  0.18 s (CPU) 0.21 s (wall)
DIIS Errors:  Max 2.35E-02 RMS 4.21E-03

Current DIIS subspace size = 3
REM_GRID_RESTART_DIIS = 0

    3    -152.6120242448      4.21E-03  00000
Finding J and K together
 Job number = 22, Threshold = 1.00E-11
Integral type ranges set in mkLRange.C for JobNum: 22  <1-6|1-6>
 MakeJK  time:  CPU       0.18 s  wall       0.26 s
Fock build time:  0.18 s (CPU) 0.26 s (wall)
DIIS Errors:  Max 7.86E-03 RMS 1.33E-03

Current DIIS subspace size = 4
REM_GRID_RESTART_DIIS = 0

    4    -152.6160184367      1.33E-03  00000
Finding J and K together
 Job number = 22, Threshold = 1.00E-11
Integral type ranges set in mkLRange.C for JobNum: 22  <1-6|1-6>
 MakeJK  time:  CPU       0.15 s  wall       0.15 s
Fock build time:  0.15 s (CPU) 0.15 s (wall)
DIIS Errors:  Max 3.35E-03 RMS 5.31E-04

Current DIIS subspace size = 5
REM_GRID_RESTART_DIIS = 0

    5    -152.6162382743      5.31E-04  00000
Finding J and K together
 Job number = 22, Threshold = 1.00E-11
Integral type ranges set in mkLRange.C for JobNum: 22  <1-6|1-6>
 MakeJK  time:  CPU       0.17 s  wall       0.18 s
Fock build time:  0.17 s (CPU) 0.18 s (wall)
DIIS Errors:  Max 5.38E-04 RMS 1.25E-04

Current DIIS subspace size = 6
REM_GRID_RESTART_DIIS = 0

    6    -152.6162737773      1.25E-04  00000
Finding J and K together
 Job number = 22, Threshold = 1.00E-11
Integral type ranges set in mkLRange.C for JobNum: 22  <1-6|1-6>
 MakeJK  time:  CPU       0.18 s  wall       0.18 s
Fock build time:  0.18 s (CPU) 0.19 s (wall)
DIIS Errors:  Max 4.00E-04 RMS 4.95E-05

Current DIIS subspace size = 7
REM_GRID_RESTART_DIIS = 0

    7    -152.6162778825      4.95E-05  00000
Finding J and K together
 Job number = 22, Threshold = 1.00E-11
Integral type ranges set in mkLRange.C for JobNum: 22  <1-6|1-6>
 MakeJK  time:  CPU       0.18 s  wall       0.20 s
Fock build time:  0.18 s (CPU) 0.20 s (wall)
DIIS Errors:  Max 1.23E-04 RMS 2.01E-05

Current DIIS subspace size = 8
REM_GRID_RESTART_DIIS = 0

    8    -152.6162785279      2.01E-05  00000
Finding J and K together
 Job number = 22, Threshold = 1.00E-11
Integral type ranges set in mkLRange.C for JobNum: 22  <1-6|1-6>
 MakeJK  time:  CPU       0.18 s  wall       0.21 s
Fock build time:  0.18 s (CPU) 0.21 s (wall)
DIIS Errors:  Max 5.24E-05 RMS 7.56E-06

Current DIIS subspace size = 9
REM_GRID_RESTART_DIIS = 0

    9    -152.6162786544      7.56E-06  00000
Finding J and K together
 Job number = 22, Threshold = 1.00E-11
Integral type ranges set in mkLRange.C for JobNum: 22  <1-6|1-6>
 MakeJK  time:  CPU       0.18 s  wall       0.19 s
Fock build time:  0.18 s (CPU) 0.19 s (wall)
DIIS Errors:  Max 1.48E-05 RMS 2.25E-06

Current DIIS subspace size = 10
REM_GRID_RESTART_DIIS = 0

   10    -152.6162786827      2.25E-06  00000
Finding J and K together
 Job number = 22, Threshold = 1.00E-11
Integral type ranges set in mkLRange.C for JobNum: 22  <1-6|1-6>
 MakeJK  time:  CPU       0.17 s  wall       0.17 s
Fock build time:  0.17 s (CPU) 0.17 s (wall)
DIIS Errors:  Max 5.06E-06 RMS 6.59E-07

Current DIIS subspace size = 11
REM_GRID_RESTART_DIIS = 0

   11    -152.6162786854      6.59E-07  00000
Finding J and K together
 Job number = 22, Threshold = 1.00E-11
Integral type ranges set in mkLRange.C for JobNum: 22  <1-6|1-6>
 MakeJK  time:  CPU       0.17 s  wall       0.20 s
Fock build time:  0.17 s (CPU) 0.20 s (wall)
DIIS Errors:  Max 1.02E-06 RMS 1.42E-07

Current DIIS subspace size = 12
REM_GRID_RESTART_DIIS = 0

   12    -152.6162786856      1.42E-07  00000
Finding J and K together
 Job number = 22, Threshold = 1.00E-11
Integral type ranges set in mkLRange.C for JobNum: 22  <1-6|1-6>
 MakeJK  time:  CPU       0.11 s  wall       0.11 s
Fock build time:  0.11 s (CPU) 0.11 s (wall)
DIIS Errors:  Max 1.54E-07 RMS 3.20E-08

Current DIIS subspace size = 13
REM_GRID_RESTART_DIIS = 0

   13    -152.6162786856      3.20E-08  00000
Finding J and K together
 Job number = 22, Threshold = 1.00E-11
Integral type ranges set in mkLRange.C for JobNum: 22  <1-6|1-6>
 MakeJK  time:  CPU       0.11 s  wall       0.11 s
Fock build time:  0.11 s (CPU) 0.11 s (wall)
DIIS Errors:  Max 5.29E-08 RMS 8.92E-09

Current DIIS subspace size = 14
REM_GRID_RESTART_DIIS = 0

   14    -152.6162786856      8.92E-09  00000 Convergence criterion met
 ---------------------------------------
 SCF time:  CPU 2.31 s  wall 2.56 s
 SCF   energy in the final basis set = -152.61627869
 Total energy in the final basis set = -152.61627869
drvman_main.C: 73: calling DrvMan  Calculating analytic gradient of the SCF energy
drvman.C : 218: Calculating analytic gradient of the SCF energy
drvman.C: 244: calling SCF_Grad for normal SCF gradient
 Job number = 111, Threshold = 1.00E-11
Integral type ranges set in mkLRange.C for JobNum: 11  <1-6|7-7>
Finding J and K together
 ML is being used
 Job number = 122, Threshold = 1.00E-11
Integral type ranges set in mkLRange.C for JobNum: 22  <1-6|1-6>
 MakeJK  time:  CPU       0.41 s  wall       0.42 s
 Gradient of SCF Energy
            1           2           3           4           5           6
    1  -0.0473369  -0.0232306  -0.0694454   0.0605005   0.0135026  -0.0562536
    2  -0.0026225   0.0621291  -0.1364089  -0.0109085  -0.1524927   0.0551701
    3   0.0485671  -0.0719083   0.0302733   0.1091841   0.0013635  -0.0111495
            7           8           9          10
    1   0.0558989  -0.0603916   0.0783890   0.0483670
    2   0.0089932  -0.0335447   0.1104595   0.0992254
    3  -0.0752408   0.0272817  -0.0272687  -0.0311025
 Max gradient component =       1.525E-01
 RMS gradient           =       6.598E-02
drvman.C: 248: out of SCF_Grad for normal SCF gradient
 Gradient time:  CPU 0.43 s  wall 0.44 s
 ------------------------------------------------------------------------------
                     drvman        : Timing summary (seconds)
 ------------------------------------------------------------------------------
     job step          cpu (% of tot)      sys (% of tot)     wall (% of tot)
 ------------------------------------------------------------------------------
 ------------------------------------------------------------------------------
   Grand Totals     0.4320E+00          0.3000E-05          0.4391E+00
 ------------------------------------------------------------------------------
drvman_main.C: 77: out of DrvMan  Time for this dynamics step: 2.8 s (CPU) 3.0 s (wall)

TIME STEP #4 (t = 60.000 a.u. = 1.45133 fs)
--------------------------------------
 Instantaneous Temperature = 2688.8 K
 ----------------------------------------------------------------
             Standard Nuclear Orientation (Angstroms)
    I     Atom           X                Y                Z
 ----------------------------------------------------------------
    1      C       3.9669356853    -0.5592949888    -0.3078981934
    2      C       4.3131717892     0.3809830691    -1.5605547337
    3      H       3.2846197067    -1.8198989938    -0.2313867059
    4      H       4.5668870846    -0.4674338929     0.8189831428
    5      C       4.1936466216     0.1252171111    -3.2226796962
    6      C       3.1370561509     0.1157036630    -4.1390906488
    7      H       3.5270442154     0.2602532927    -5.2449701718
    8      H       2.0885374756    -0.3903254429    -3.8864766791
    9      H       5.0770018040     1.4627032727    -1.5394911579
   10      H       4.9750889875     0.9947003984    -3.6537510309
 ----------------------------------------------------------------
 Nuclear Repulsion Energy =    90.6504903003 hartrees
 There are       15 alpha and       15 beta electrons

                       Distance Matrix (Angstroms)
             C (  1)   C (  2)   H (  3)   H (  4)   C (  5)   C (  6)
   C (  2)  1.604104
   H (  3)  1.435455  2.769204
   H (  4)  1.279938  2.538973  2.139310
   C (  5)  3.002650  1.685931  3.682070  4.101900
   C (  6)  3.977733  2.846484  4.363311  5.192972  1.398672
   H (  7)  5.023927  3.769282  5.433399  6.195348  2.133601  1.181505
   H (  8)  4.045140  3.309657  4.102923  5.318789  2.266693  1.191331
   H (  9)  2.614870  1.324386  3.962228  3.089992  2.324287  3.512224
   H ( 10)  3.824396  2.279529  4.742598  4.723327  1.245984  2.094410
             H (  7)   H (  8)   H (  9)
   H (  8)  2.082801
   H (  9)  4.192711  4.227644
   H ( 10)  2.273373  3.210084  2.167835

 Applying Cartesian multipole field
    Component          Value
    ---------          -----
     (2,0,0)        1.00000E-11
     (0,2,0)        2.00000E-11
     (0,0,2)       -3.00000E-11
 Nucleus-field energy     =    -0.0000000082 hartrees
 ENuRep (before)= 90.6504903003
 ENucField = -0.0000000082
 ENuRep (after) = 90.6504902921
 Job number = 2, Threshold = 1.00E-11
Integral type ranges set in mkLRange.C for JobNum: 2  <1-6|1-6>
Symmetry turned off temporarily
Symmetry turned back on
 Job number = 11, Threshold = 1.00E-11
Integral type ranges set in mkLRange.C for JobNum: 11  <1-6|7-7>
 Smallest overlap matrix eigenvalue = 2.27E-01
 Multipole matrices computed through 2nd order
 Guess from superposition of atomic densities
 Warning:  Energy on first SCF cycle will be non-variational
 SAD guess density has 30.000000 electrons
 SCF convergence criterion is 10**(-8)
 A restricted Hartree-Fock SCF calculation will be
 performed using Pulay DIIS extrapolation
 SCF converges when DIIS error is below 1.0E-08
Finding J and K together
 Job number = 22, Threshold = 1.00E-11
Integral type ranges set in mkLRange.C for JobNum: 22  <1-6|1-6>
 MakeJK  time:  CPU       0.12 s  wall       0.13 s
Fock build time:  0.12 s (CPU) 0.13 s (wall)
DIIS Errors:  Max 9.56E-01 RMS 1.45E-01

Current DIIS subspace size = 1
REM_GRID_RESTART_DIIS = 0

 ---------------------------------------
  Cycle       Energy         DIIS Error
 ---------------------------------------
    1    -151.0893887887      1.45E-01  00000
Finding J and K together
 Job number = 22, Threshold = 1.00E-11
Integral type ranges set in mkLRange.C for JobNum: 22  <1-6|1-6>
 MakeJK  time:  CPU       0.18 s  wall       0.18 s
Fock build time:  0.18 s (CPU) 0.18 s (wall)
DIIS Errors:  Max 5.63E-02 RMS 1.26E-02

Current DIIS subspace size = 2
REM_GRID_RESTART_DIIS = 0

    2    -152.6476787827      1.26E-02  00000
Finding J and K together
 Job number = 22, Threshold = 1.00E-11
Integral type ranges set in mkLRange.C for JobNum: 22  <1-6|1-6>
 MakeJK  time:  CPU       0.17 s  wall       0.19 s
Fock build time:  0.17 s (CPU) 0.19 s (wall)
DIIS Errors:  Max 2.34E-02 RMS 4.16E-03

Current DIIS subspace size = 3
REM_GRID_RESTART_DIIS = 0

    3    -152.6794667988      4.16E-03  00000
Finding J and K together
 Job number = 22, Threshold = 1.00E-11
Integral type ranges set in mkLRange.C for JobNum: 22  <1-6|1-6>
 MakeJK  time:  CPU       0.16 s  wall       0.16 s
Fock build time:  0.16 s (CPU) 0.16 s (wall)
DIIS Errors:  Max 1.20E-02 RMS 1.81E-03

Current DIIS subspace size = 4
REM_GRID_RESTART_DIIS = 0

    4    -152.6829585651      1.81E-03  00000
Finding J and K together
 Job number = 22, Threshold = 1.00E-11
Integral type ranges set in mkLRange.C for JobNum: 22  <1-6|1-6>
 MakeJK  time:  CPU       0.18 s  wall       0.18 s
Fock build time:  0.18 s (CPU) 0.18 s (wall)
DIIS Errors:  Max 2.41E-03 RMS 4.18E-04

Current DIIS subspace size = 5
REM_GRID_RESTART_DIIS = 0

    5    -152.6833300838      4.18E-04  00000
Finding J and K together
 Job number = 22, Threshold = 1.00E-11
Integral type ranges set in mkLRange.C for JobNum: 22  <1-6|1-6>
 MakeJK  time:  CPU       0.17 s  wall       0.18 s
Fock build time:  0.18 s (CPU) 0.18 s (wall)
DIIS Errors:  Max 5.40E-04 RMS 1.18E-04

Current DIIS subspace size = 6
REM_GRID_RESTART_DIIS = 0

    6    -152.6833548148      1.18E-04  00000
Finding J and K together
 Job number = 22, Threshold = 1.00E-11
Integral type ranges set in mkLRange.C for JobNum: 22  <1-6|1-6>
 MakeJK  time:  CPU       0.16 s  wall       0.16 s
Fock build time:  0.16 s (CPU) 0.16 s (wall)
DIIS Errors:  Max 4.14E-04 RMS 4.92E-05

Current DIIS subspace size = 7
REM_GRID_RESTART_DIIS = 0

    7    -152.6833579542      4.92E-05  00000
Finding J and K together
 Job number = 22, Threshold = 1.00E-11
Integral type ranges set in mkLRange.C for JobNum: 22  <1-6|1-6>
 MakeJK  time:  CPU       0.13 s  wall       0.13 s
Fock build time:  0.13 s (CPU) 0.13 s (wall)
DIIS Errors:  Max 1.15E-04 RMS 1.67E-05

Current DIIS subspace size = 8
REM_GRID_RESTART_DIIS = 0

    8    -152.6833586085      1.67E-05  00000
Finding J and K together
 Job number = 22, Threshold = 1.00E-11
Integral type ranges set in mkLRange.C for JobNum: 22  <1-6|1-6>
 MakeJK  time:  CPU       0.17 s  wall       0.17 s
Fock build time:  0.17 s (CPU) 0.17 s (wall)
DIIS Errors:  Max 4.08E-05 RMS 5.74E-06

Current DIIS subspace size = 9
REM_GRID_RESTART_DIIS = 0

    9    -152.6833587050      5.74E-06  00000
Finding J and K together
 Job number = 22, Threshold = 1.00E-11
Integral type ranges set in mkLRange.C for JobNum: 22  <1-6|1-6>
 MakeJK  time:  CPU       0.16 s  wall       0.17 s
Fock build time:  0.16 s (CPU) 0.17 s (wall)
DIIS Errors:  Max 1.44E-05 RMS 1.95E-06

Current DIIS subspace size = 10
REM_GRID_RESTART_DIIS = 0

   10    -152.6833587197      1.95E-06  00000
Finding J and K together
 Job number = 22, Threshold = 1.00E-11
Integral type ranges set in mkLRange.C for JobNum: 22  <1-6|1-6>
 MakeJK  time:  CPU       0.16 s  wall       0.16 s
Fock build time:  0.16 s (CPU) 0.16 s (wall)
DIIS Errors:  Max 4.21E-06 RMS 5.69E-07

Current DIIS subspace size = 11
REM_GRID_RESTART_DIIS = 0

   11    -152.6833587215      5.69E-07  00000
Finding J and K together
 Job number = 22, Threshold = 1.00E-11
Integral type ranges set in mkLRange.C for JobNum: 22  <1-6|1-6>
 MakeJK  time:  CPU       0.16 s  wall       0.16 s
Fock build time:  0.16 s (CPU) 0.16 s (wall)
DIIS Errors:  Max 6.81E-07 RMS 1.21E-07

Current DIIS subspace size = 12
REM_GRID_RESTART_DIIS = 0

   12    -152.6833587216      1.21E-07  00000
Finding J and K together
 Job number = 22, Threshold = 1.00E-11
Integral type ranges set in mkLRange.C for JobNum: 22  <1-6|1-6>
 MakeJK  time:  CPU       0.18 s  wall       0.18 s
Fock build time:  0.18 s (CPU) 0.18 s (wall)
DIIS Errors:  Max 1.41E-07 RMS 3.08E-08

Current DIIS subspace size = 13
REM_GRID_RESTART_DIIS = 0

   13    -152.6833587216      3.08E-08  00000
Finding J and K together
 Job number = 22, Threshold = 1.00E-11
Integral type ranges set in mkLRange.C for JobNum: 22  <1-6|1-6>
 MakeJK  time:  CPU       0.18 s  wall       0.18 s
Fock build time:  0.18 s (CPU) 0.18 s (wall)
DIIS Errors:  Max 4.67E-08 RMS 8.95E-09

Current DIIS subspace size = 14
REM_GRID_RESTART_DIIS = 0

   14    -152.6833587216      8.95E-09  00000 Convergence criterion met
 ---------------------------------------
 SCF time:  CPU 2.30 s  wall 2.37 s
 SCF   energy in the final basis set = -152.68335872
 Total energy in the final basis set = -152.68335872
drvman_main.C: 73: calling DrvMan  Calculating analytic gradient of the SCF energy
drvman.C : 218: Calculating analytic gradient of the SCF energy
drvman.C: 244: calling SCF_Grad for normal SCF gradient
 Job number = 111, Threshold = 1.00E-11
Integral type ranges set in mkLRange.C for JobNum: 11  <1-6|7-7>
Finding J and K together
 ML is being used
 Job number = 122, Threshold = 1.00E-11
Integral type ranges set in mkLRange.C for JobNum: 22  <1-6|1-6>
 MakeJK  time:  CPU       0.44 s  wall       0.44 s
 Gradient of SCF Energy
            1           2           3           4           5           6
    1  -0.0437562  -0.0155101  -0.0653440   0.0534580   0.0190379  -0.0338284
    2  -0.0064615   0.0689003  -0.1315494  -0.0118209  -0.1399650   0.0591910
    3   0.0624380  -0.0729425   0.0278881   0.0984233  -0.0029489  -0.0265427
            7           8           9          10
    1   0.0420227  -0.0635851   0.0712860   0.0362192
    2   0.0046497  -0.0327491   0.1032809   0.0865240
    3  -0.0603042   0.0256987  -0.0232556  -0.0284542
 Max gradient component =       1.400E-01
 RMS gradient           =       6.154E-02
drvman.C: 248: out of SCF_Grad for normal SCF gradient
 Gradient time:  CPU 0.46 s  wall 0.46 s
 ------------------------------------------------------------------------------
                     drvman        : Timing summary (seconds)
 ------------------------------------------------------------------------------
     job step          cpu (% of tot)      sys (% of tot)     wall (% of tot)
 ------------------------------------------------------------------------------
 ------------------------------------------------------------------------------
   Grand Totals     0.4600E+00          0.2000E-05          0.4609E+00
 ------------------------------------------------------------------------------
drvman_main.C: 77: out of DrvMan  Time for this dynamics step: 2.8 s (CPU) 2.9 s (wall)

TIME STEP #5 (t = 80.000 a.u. = 1.93511 fs)
--------------------------------------
 Instantaneous Temperature = 4089.2 K
 ----------------------------------------------------------------
             Standard Nuclear Orientation (Angstroms)
    I     Atom           X                Y                Z
 ----------------------------------------------------------------
    1      C       3.9689618042    -0.5618984625    -0.3108633680
    2      C       4.3142914516     0.3779192832    -1.5557616507
    3      H       3.3370479674    -1.7480781708    -0.2673330230
    4      H       4.5299688042    -0.4632768253     0.7706571321
    5      C       4.1916380636     0.1328104363    -3.2221103060
    6      C       3.1454723598     0.1144881509    -4.1394590505
    7      H       3.4723945330     0.2491571654    -5.2191964730
    8      H       2.0909160716    -0.3675964392    -3.8893282602
    9      H       5.0300241502     1.4195608846    -1.5071564545
   10      H       4.9450772281     0.9417716211    -3.6488931332
 ----------------------------------------------------------------
 Nuclear Repulsion Energy =    91.6703088255 hartrees
 There are       15 alpha and       15 beta electrons

                       Distance Matrix (Angstroms)
             C (  1)   C (  2)   H (  3)   H (  4)   C (  5)   C (  6)
   C (  2)  1.597586
   H (  3)  1.344705  2.671127
   H (  4)  1.222351  2.483214  2.037449
   C (  5)  3.001260  1.688739  3.605381  4.051170
   C (  6)  3.974139  2.847986  4.301071  5.134188  1.391520
   H (  7)  4.999612  3.761133  5.341181  6.124081  2.125841  1.136154
   H (  8)  4.046013  3.308281  4.071538  5.260570  2.260226  1.186196
   H (  9)  2.546203  1.264774  3.799640  2.997260  2.302104  3.490525
   H ( 10)  3.788967  2.257658  4.610423  4.656061  1.185003  2.040498
             H (  7)   H (  8)   H (  9)
   H (  8)  2.014303
   H (  9)  4.192290  4.184140
   H ( 10)  2.261495  3.149363  2.196027

 Applying Cartesian multipole field
    Component          Value
    ---------          -----
     (2,0,0)        1.00000E-11
     (0,2,0)        2.00000E-11
     (0,0,2)       -3.00000E-11
 Nucleus-field energy     =    -0.0000000082 hartrees
 ENuRep (before)= 91.6703088255
 ENucField = -0.0000000082
 ENuRep (after) = 91.6703088173
 Job number = 2, Threshold = 1.00E-11
Integral type ranges set in mkLRange.C for JobNum: 2  <1-6|1-6>
Symmetry turned off temporarily
Symmetry turned back on
 Job number = 11, Threshold = 1.00E-11
Integral type ranges set in mkLRange.C for JobNum: 11  <1-6|7-7>
 Smallest overlap matrix eigenvalue = 2.20E-01
 Multipole matrices computed through 2nd order
 Guess from superposition of atomic densities
 Warning:  Energy on first SCF cycle will be non-variational
 SAD guess density has 30.000000 electrons
 SCF convergence criterion is 10**(-8)
 A restricted Hartree-Fock SCF calculation will be
 performed using Pulay DIIS extrapolation
 SCF converges when DIIS error is below 1.0E-08
Finding J and K together
 Job number = 22, Threshold = 1.00E-11
Integral type ranges set in mkLRange.C for JobNum: 22  <1-6|1-6>
 MakeJK  time:  CPU       0.14 s  wall       0.14 s
Fock build time:  0.14 s (CPU) 0.14 s (wall)
DIIS Errors:  Max 9.72E-01 RMS 1.52E-01

Current DIIS subspace size = 1
REM_GRID_RESTART_DIIS = 0

 ---------------------------------------
  Cycle       Energy         DIIS Error
 ---------------------------------------
    1    -151.2846451307      1.52E-01  00000
Finding J and K together
 Job number = 22, Threshold = 1.00E-11
Integral type ranges set in mkLRange.C for JobNum: 22  <1-6|1-6>
 MakeJK  time:  CPU       0.18 s  wall       0.18 s
Fock build time:  0.18 s (CPU) 0.18 s (wall)
DIIS Errors:  Max 5.78E-02 RMS 1.25E-02

Current DIIS subspace size = 2
REM_GRID_RESTART_DIIS = 0

    2    -152.7226792017      1.25E-02  00000
Finding J and K together
 Job number = 22, Threshold = 1.00E-11
Integral type ranges set in mkLRange.C for JobNum: 22  <1-6|1-6>
 MakeJK  time:  CPU       0.18 s  wall       0.18 s
Fock build time:  0.18 s (CPU) 0.18 s (wall)
DIIS Errors:  Max 2.33E-02 RMS 4.17E-03

Current DIIS subspace size = 3
REM_GRID_RESTART_DIIS = 0

    3    -152.7526303301      4.17E-03  00000
Finding J and K together
 Job number = 22, Threshold = 1.00E-11
Integral type ranges set in mkLRange.C for JobNum: 22  <1-6|1-6>
 MakeJK  time:  CPU       0.17 s  wall       0.17 s
Fock build time:  0.17 s (CPU) 0.17 s (wall)
DIIS Errors:  Max 1.63E-02 RMS 2.34E-03

Current DIIS subspace size = 4
REM_GRID_RESTART_DIIS = 0

    4    -152.7555750206      2.34E-03  00000
Finding J and K together
 Job number = 22, Threshold = 1.00E-11
Integral type ranges set in mkLRange.C for JobNum: 22  <1-6|1-6>
 MakeJK  time:  CPU       0.18 s  wall       0.18 s
Fock build time:  0.18 s (CPU) 0.18 s (wall)
DIIS Errors:  Max 1.40E-03 RMS 2.86E-04

Current DIIS subspace size = 5
REM_GRID_RESTART_DIIS = 0

    5    -152.7561919254      2.86E-04  00000
Finding J and K together
 Job number = 22, Threshold = 1.00E-11
Integral type ranges set in mkLRange.C for JobNum: 22  <1-6|1-6>
 MakeJK  time:  CPU       0.17 s  wall       0.17 s
Fock build time:  0.17 s (CPU) 0.17 s (wall)
DIIS Errors:  Max 6.21E-04 RMS 1.21E-04

Current DIIS subspace size = 6
REM_GRID_RESTART_DIIS = 0

    6    -152.7562057737      1.21E-04  00000
Finding J and K together
 Job number = 22, Threshold = 1.00E-11
Integral type ranges set in mkLRange.C for JobNum: 22  <1-6|1-6>
 MakeJK  time:  CPU       0.12 s  wall       0.12 s
Fock build time:  0.12 s (CPU) 0.12 s (wall)
DIIS Errors:  Max 2.91E-04 RMS 4.00E-05

Current DIIS subspace size = 7
REM_GRID_RESTART_DIIS = 0

    7    -152.7562085235      4.00E-05  00000
Finding J and K together
 Job number = 22, Threshold = 1.00E-11
Integral type ranges set in mkLRange.C for JobNum: 22  <1-6|1-6>
 MakeJK  time:  CPU       0.16 s  wall       0.17 s
Fock build time:  0.16 s (CPU) 0.17 s (wall)
DIIS Errors:  Max 9.73E-05 RMS 1.45E-05

Current DIIS subspace size = 8
REM_GRID_RESTART_DIIS = 0

    8    -152.7562090548      1.45E-05  00000
Finding J and K together
 Job number = 22, Threshold = 1.00E-11
Integral type ranges set in mkLRange.C for JobNum: 22  <1-6|1-6>
 MakeJK  time:  CPU       0.19 s  wall       0.20 s
Fock build time:  0.19 s (CPU) 0.20 s (wall)
DIIS Errors:  Max 3.12E-05 RMS 4.53E-06

Current DIIS subspace size = 9
REM_GRID_RESTART_DIIS = 0

    9    -152.7562091272      4.53E-06  00000
Finding J and K together
 Job number = 22, Threshold = 1.00E-11
Integral type ranges set in mkLRange.C for JobNum: 22  <1-6|1-6>
 MakeJK  time:  CPU       0.15 s  wall       0.15 s
Fock build time:  0.15 s (CPU) 0.15 s (wall)
DIIS Errors:  Max 1.36E-05 RMS 1.87E-06

Current DIIS subspace size = 10
REM_GRID_RESTART_DIIS = 0

   10    -152.7562091346      1.87E-06  00000
Finding J and K together
 Job number = 22, Threshold = 1.00E-11
Integral type ranges set in mkLRange.C for JobNum: 22  <1-6|1-6>
 MakeJK  time:  CPU       0.18 s  wall       0.18 s
Fock build time:  0.18 s (CPU) 0.18 s (wall)
DIIS Errors:  Max 3.51E-06 RMS 5.20E-07

Current DIIS subspace size = 11
REM_GRID_RESTART_DIIS = 0

   11    -152.7562091359      5.20E-07  00000
Finding J and K together
 Job number = 22, Threshold = 1.00E-11
Integral type ranges set in mkLRange.C for JobNum: 22  <1-6|1-6>
 MakeJK  time:  CPU       0.18 s  wall       0.19 s
Fock build time:  0.19 s (CPU) 0.19 s (wall)
DIIS Errors:  Max 6.81E-07 RMS 1.17E-07

Current DIIS subspace size = 12
REM_GRID_RESTART_DIIS = 0

   12    -152.7562091360      1.17E-07  00000
Finding J and K together
 Job number = 22, Threshold = 1.00E-11
Integral type ranges set in mkLRange.C for JobNum: 22  <1-6|1-6>
 MakeJK  time:  CPU       0.18 s  wall       0.23 s
Fock build time:  0.18 s (CPU) 0.23 s (wall)
DIIS Errors:  Max 2.08E-07 RMS 3.34E-08

Current DIIS subspace size = 13
REM_GRID_RESTART_DIIS = 0

   13    -152.7562091360      3.34E-08  00000
Finding J and K together
 Job number = 22, Threshold = 1.00E-11
Integral type ranges set in mkLRange.C for JobNum: 22  <1-6|1-6>
 MakeJK  time:  CPU       0.18 s  wall       0.20 s
Fock build time:  0.18 s (CPU) 0.20 s (wall)
DIIS Errors:  Max 5.51E-08 RMS 9.22E-09

Current DIIS subspace size = 14
REM_GRID_RESTART_DIIS = 0

   14    -152.7562091360      9.22E-09  00000 Convergence criterion met
 ---------------------------------------
 SCF time:  CPU 2.39 s  wall 2.51 s
 SCF   energy in the final basis set = -152.75620914
 Total energy in the final basis set = -152.75620914
drvman_main.C: 73: calling DrvMan  Calculating analytic gradient of the SCF energy
drvman.C : 218: Calculating analytic gradient of the SCF energy
drvman.C: 244: calling SCF_Grad for normal SCF gradient
 Job number = 111, Threshold = 1.00E-11
Integral type ranges set in mkLRange.C for JobNum: 11  <1-6|7-7>
Finding J and K together
 ML is being used
 Job number = 122, Threshold = 1.00E-11
Integral type ranges set in mkLRange.C for JobNum: 22  <1-6|1-6>
 MakeJK  time:  CPU       0.47 s  wall       0.50 s
 Gradient of SCF Energy
            1           2           3           4           5           6
    1  -0.0400465  -0.0033303  -0.0569845   0.0423204   0.0313745  -0.0123872
    2  -0.0168202   0.0817189  -0.1186990  -0.0136101  -0.1197950   0.0623142
    3   0.0850485  -0.0737440   0.0249595   0.0795051  -0.0110195  -0.0492544
            7           8           9          10
    1   0.0255971  -0.0628883   0.0595815   0.0167632
    2  -0.0008063  -0.0299837   0.0892973   0.0663839
    3  -0.0367935   0.0224808  -0.0191815  -0.0220009
 Max gradient component =       1.198E-01
 RMS gradient           =       5.593E-02
drvman.C: 248: out of SCF_Grad for normal SCF gradient
 Gradient time:  CPU 0.49 s  wall 0.53 s
 ------------------------------------------------------------------------------
                     drvman        : Timing summary (seconds)
 ------------------------------------------------------------------------------
     job step          cpu (% of tot)      sys (% of tot)     wall (% of tot)
 ------------------------------------------------------------------------------
 ------------------------------------------------------------------------------
   Grand Totals     0.4880E+00          0.1000E-05          0.5260E+00
 ------------------------------------------------------------------------------
drvman_main.C: 77: out of DrvMan  Time for this dynamics step: 2.9 s (CPU) 3.1 s (wall)

TIME STEP #6 (t = 100.000 a.u. = 2.41888 fs)
--------------------------------------
 Instantaneous Temperature = 5602.8 K
 ----------------------------------------------------------------
             Standard Nuclear Orientation (Angstroms)
    I     Atom           X                Y                Z
 ----------------------------------------------------------------
    1      C       3.9713754342    -0.5643391753    -0.3146515175
    2      C       4.3154433395     0.3740647414    -1.5502549815
    3      H       3.3960417636    -1.6625812905    -0.3061550786
    4      H       4.4881745266    -0.4575516584     0.7131708361
    5      C       4.1893259088     0.1415629622    -3.2214342853
    6      C       3.1540084338     0.1126696539    -4.1393508399
    7      H       3.4147956455     0.2381539361    -5.1891835634
    8      H       2.1005404233    -0.3414128213    -3.8947699909
    9      H       4.9761817410     1.3661299917    -1.4726117249
   10      H       4.9131340798     0.8811943416    -3.6415003713
 ----------------------------------------------------------------
 Nuclear Repulsion Energy =    92.9587666181 hartrees
 There are       15 alpha and       15 beta electrons

                       Distance Matrix (Angstroms)
             C (  1)   C (  2)   H (  3)   H (  4)   C (  5)   C (  6)
   C (  2)  1.589245
   H (  3)  1.239845  2.557540
   H (  4)  1.155380  2.417544  1.919343
   C (  5)  2.999198  1.691982  3.518961  3.991161
   C (  6)  3.969226  2.849680  4.231251  5.064792  1.383939
   H (  7)  4.971402  3.751192  5.239954  6.039366  2.116900  1.088993
   H (  8)  4.045611  3.303703  4.037569  5.191089  2.247147  1.172947
   H (  9)  2.465202  1.194486  3.609786  2.888185  2.275321  3.464531
   H ( 10)  3.747586  2.233321  4.460593  4.575587  1.116874  1.983181
             H (  7)   H (  8)   H (  9)
   H (  8)  1.933564
   H (  9)  4.186068  4.129391
   H ( 10)  2.248075  3.077271  2.223334

 Applying Cartesian multipole field
    Component          Value
    ---------          -----
     (2,0,0)        1.00000E-11
     (0,2,0)        2.00000E-11
     (0,0,2)       -3.00000E-11
 Nucleus-field energy     =    -0.0000000082 hartrees
 ENuRep (before)= 92.9587666181
 ENucField = -0.0000000082
 ENuRep (after) = 92.9587666099
 Job number = 2, Threshold = 1.00E-11
Integral type ranges set in mkLRange.C for JobNum: 2  <1-6|1-6>
Symmetry turned off temporarily
Symmetry turned back on
 Job number = 11, Threshold = 1.00E-11
Integral type ranges set in mkLRange.C for JobNum: 11  <1-6|7-7>
 Smallest overlap matrix eigenvalue = 2.11E-01
 Multipole matrices computed through 2nd order
 Guess from superposition of atomic densities
 Warning:  Energy on first SCF cycle will be non-variational
 SAD guess density has 30.000000 electrons
 SCF convergence criterion is 10**(-8)
 A restricted Hartree-Fock SCF calculation will be
 performed using Pulay DIIS extrapolation
 SCF converges when DIIS error is below 1.0E-08
Finding J and K together
 Job number = 22, Threshold = 1.00E-11
Integral type ranges set in mkLRange.C for JobNum: 22  <1-6|1-6>
 MakeJK  time:  CPU       0.11 s  wall       0.11 s
Fock build time:  0.11 s (CPU) 0.11 s (wall)
DIIS Errors:  Max 9.90E-01 RMS 1.62E-01

Current DIIS subspace size = 1
REM_GRID_RESTART_DIIS = 0

 ---------------------------------------
  Cycle       Energy         DIIS Error
 ---------------------------------------
    1    -151.5429916828      1.62E-01  00000
Finding J and K together
 Job number = 22, Threshold = 1.00E-11
Integral type ranges set in mkLRange.C for JobNum: 22  <1-6|1-6>
 MakeJK  time:  CPU       0.13 s  wall       0.13 s
Fock build time:  0.13 s (CPU) 0.13 s (wall)
DIIS Errors:  Max 5.96E-02 RMS 1.26E-02

Current DIIS subspace size = 2
REM_GRID_RESTART_DIIS = 0

    2    -152.7892590794      1.26E-02  00000
Finding J and K together
 Job number = 22, Threshold = 1.00E-11
Integral type ranges set in mkLRange.C for JobNum: 22  <1-6|1-6>
 MakeJK  time:  CPU       0.12 s  wall       0.12 s
Fock build time:  0.12 s (CPU) 0.12 s (wall)
DIIS Errors:  Max 2.53E-02 RMS 4.32E-03

Current DIIS subspace size = 3
REM_GRID_RESTART_DIIS = 0

    3    -152.8175774425      4.32E-03  00000
Finding J and K together
 Job number = 22, Threshold = 1.00E-11
Integral type ranges set in mkLRange.C for JobNum: 22  <1-6|1-6>
 MakeJK  time:  CPU       0.15 s  wall       0.15 s
Fock build time:  0.15 s (CPU) 0.15 s (wall)
DIIS Errors:  Max 2.00E-02 RMS 2.81E-03

Current DIIS subspace size = 4
REM_GRID_RESTART_DIIS = 0

    4    -152.8200739596      2.81E-03  00000
Finding J and K together
 Job number = 22, Threshold = 1.00E-11
Integral type ranges set in mkLRange.C for JobNum: 22  <1-6|1-6>
 MakeJK  time:  CPU       0.13 s  wall       0.13 s
Fock build time:  0.13 s (CPU) 0.13 s (wall)
DIIS Errors:  Max 1.59E-03 RMS 2.38E-04

Current DIIS subspace size = 5
REM_GRID_RESTART_DIIS = 0

    5    -152.8209651248      2.38E-04  00000
Finding J and K together
 Job number = 22, Threshold = 1.00E-11
Integral type ranges set in mkLRange.C for JobNum: 22  <1-6|1-6>
 MakeJK  time:  CPU       0.13 s  wall       0.13 s
Fock build time:  0.13 s (CPU) 0.13 s (wall)
DIIS Errors:  Max 6.43E-04 RMS 1.20E-04

Current DIIS subspace size = 6
REM_GRID_RESTART_DIIS = 0

    6    -152.8209753133      1.20E-04  00000
Finding J and K together
 Job number = 22, Threshold = 1.00E-11
Integral type ranges set in mkLRange.C for JobNum: 22  <1-6|1-6>
 MakeJK  time:  CPU       0.12 s  wall       0.12 s
Fock build time:  0.12 s (CPU) 0.12 s (wall)
DIIS Errors:  Max 2.04E-04 RMS 3.48E-05

Current DIIS subspace size = 7
REM_GRID_RESTART_DIIS = 0

    7    -152.8209779442      3.48E-05  00000
Finding J and K together
 Job number = 22, Threshold = 1.00E-11
[...]
   H ( 10)  2.956499  2.468424  2.916752  4.068078  1.179585  1.992125
             H (  7)   H (  8)   H (  9)
   H (  8)  1.958227
   H (  9)  3.199255  2.980655
   H ( 10)  1.904678  3.211971  2.744976

 Applying Cartesian multipole field
    Component          Value
    ---------          -----
     (2,0,0)        1.00000E-11
     (0,2,0)        2.00000E-11
     (0,0,2)       -3.00000E-11
 Nucleus-field energy     =    -0.0000000041 hartrees
 ENuRep (before)= 100.7402840379
 ENucField = -0.0000000041
 ENuRep (after) = 100.7402840339
 Job number = 2, Threshold = 1.00E-11
Integral type ranges set in mkLRange.C for JobNum: 2  <1-6|1-6>
Symmetry turned off temporarily
Symmetry turned back on
 Job number = 11, Threshold = 1.00E-11
Integral type ranges set in mkLRange.C for JobNum: 11  <1-6|7-7>
 Smallest overlap matrix eigenvalue = 1.92E-01
 Multipole matrices computed through 2nd order
 Extrapolating the Fock matrix using 12 points and a 6th-order polynomial
 Alpha Fock matrix extrapolation
 Skip SCF guess (diagonalize extrapolated Fock matrix instead)
 SCF convergence criterion is 10**(-8)
 A restricted Hartree-Fock SCF calculation will be
 performed using Pulay DIIS extrapolation
 SCF converges when DIIS error is below 1.0E-08
Extrapolated Fock matrix used in lieu of Fock build
Fock build time:  0.00 s (CPU) 0.00 s (wall)
DIIS Errors:  Max 3.44E-01 RMS 2.42E-02

Current DIIS subspace size = 1
REM_GRID_RESTART_DIIS = 0

 ---------------------------------------
  Cycle       Energy         DIIS Error
 ---------------------------------------
    1    -305.7080997224      2.42E-02  00000
Finding J and K together
 Job number = 22, Threshold = 1.00E-11
Integral type ranges set in mkLRange.C for JobNum: 22  <1-6|1-6>
 MakeJK  time:  CPU       0.17 s  wall       0.17 s
Fock build time:  0.17 s (CPU) 0.17 s (wall)
DIIS Errors:  Max 2.29E-01 RMS 1.87E-02

Current DIIS subspace size = 2
REM_GRID_RESTART_DIIS = 0

    2    -152.7497719039      1.87E-02  00000
Finding J and K together
 Job number = 22, Threshold = 1.00E-11
Integral type ranges set in mkLRange.C for JobNum: 22  <1-6|1-6>
 MakeJK  time:  CPU       0.20 s  wall       0.23 s
Fock build time:  0.20 s (CPU) 0.23 s (wall)
DIIS Errors:  Max 1.06E-01 RMS 8.62E-03

Current DIIS subspace size = 3
REM_GRID_RESTART_DIIS = 0

    3    -152.7548109784      8.62E-03  00000
Finding J and K together
 Job number = 22, Threshold = 1.00E-11
Integral type ranges set in mkLRange.C for JobNum: 22  <1-6|1-6>
 MakeJK  time:  CPU       0.20 s  wall       0.20 s
Fock build time:  0.20 s (CPU) 0.20 s (wall)
DIIS Errors:  Max 2.36E-03 RMS 2.88E-04

Current DIIS subspace size = 4
REM_GRID_RESTART_DIIS = 0

    4    -152.7563008114      2.88E-04  00000
Finding J and K together
 Job number = 22, Threshold = 1.00E-11
Integral type ranges set in mkLRange.C for JobNum: 22  <1-6|1-6>
 MakeJK  time:  CPU       0.20 s  wall       0.22 s
Fock build time:  0.20 s (CPU) 0.22 s (wall)
DIIS Errors:  Max 7.25E-04 RMS 7.95E-05

Current DIIS subspace size = 5
REM_GRID_RESTART_DIIS = 0

    5    -152.7563094893      7.95E-05  00000
Finding J and K together
 Job number = 22, Threshold = 1.00E-11
Integral type ranges set in mkLRange.C for JobNum: 22  <1-6|1-6>
 MakeJK  time:  CPU       0.20 s  wall       0.20 s
Fock build time:  0.20 s (CPU) 0.20 s (wall)
DIIS Errors:  Max 2.60E-04 RMS 4.24E-05

Current DIIS subspace size = 6
REM_GRID_RESTART_DIIS = 0

    6    -152.7563112136      4.24E-05  00000
Finding J and K together
 Job number = 22, Threshold = 1.00E-11
Integral type ranges set in mkLRange.C for JobNum: 22  <1-6|1-6>
 MakeJK  time:  CPU       0.20 s  wall       0.20 s
Fock build time:  0.20 s (CPU) 0.20 s (wall)
DIIS Errors:  Max 6.99E-05 RMS 1.30E-05

Current DIIS subspace size = 7
REM_GRID_RESTART_DIIS = 0

    7    -152.7563115452      1.30E-05  00000
Finding J and K together
 Job number = 22, Threshold = 1.00E-11
Integral type ranges set in mkLRange.C for JobNum: 22  <1-6|1-6>
 MakeJK  time:  CPU       0.20 s  wall       0.20 s
Fock build time:  0.20 s (CPU) 0.20 s (wall)
DIIS Errors:  Max 3.56E-05 RMS 4.58E-06

Current DIIS subspace size = 8
REM_GRID_RESTART_DIIS = 0

    8    -152.7563115915      4.58E-06  00000
Finding J and K together
 Job number = 22, Threshold = 1.00E-11
Integral type ranges set in mkLRange.C for JobNum: 22  <1-6|1-6>
 MakeJK  time:  CPU       0.19 s  wall       0.22 s
Fock build time:  0.19 s (CPU) 0.22 s (wall)
DIIS Errors:  Max 8.09E-06 RMS 1.33E-06

Current DIIS subspace size = 9
REM_GRID_RESTART_DIIS = 0

    9    -152.7563115939      1.33E-06  00000
Finding J and K together
 Job number = 22, Threshold = 1.00E-11
Integral type ranges set in mkLRange.C for JobNum: 22  <1-6|1-6>
 MakeJK  time:  CPU       0.20 s  wall       0.20 s
Fock build time:  0.20 s (CPU) 0.20 s (wall)
DIIS Errors:  Max 3.78E-06 RMS 7.01E-07

Current DIIS subspace size = 10
REM_GRID_RESTART_DIIS = 0

   10    -152.7563115945      7.01E-07  00000
Finding J and K together
 Job number = 22, Threshold = 1.00E-11
Integral type ranges set in mkLRange.C for JobNum: 22  <1-6|1-6>
 MakeJK  time:  CPU       0.20 s  wall       0.20 s
Fock build time:  0.20 s (CPU) 0.20 s (wall)
DIIS Errors:  Max 9.65E-07 RMS 1.74E-07

Current DIIS subspace size = 11
REM_GRID_RESTART_DIIS = 0

   11    -152.7563115946      1.74E-07  00000
Finding J and K together
 Job number = 22, Threshold = 1.00E-11
Integral type ranges set in mkLRange.C for JobNum: 22  <1-6|1-6>
 MakeJK  time:  CPU       0.19 s  wall       0.21 s
Fock build time:  0.19 s (CPU) 0.21 s (wall)
DIIS Errors:  Max 1.88E-07 RMS 3.65E-08

Current DIIS subspace size = 12
REM_GRID_RESTART_DIIS = 0

   12    -152.7563115946      3.65E-08  00000
Finding J and K together
 Job number = 22, Threshold = 1.00E-11
Integral type ranges set in mkLRange.C for JobNum: 22  <1-6|1-6>
 MakeJK  time:  CPU       0.20 s  wall       0.21 s
Fock build time:  0.20 s (CPU) 0.21 s (wall)
DIIS Errors:  Max 7.86E-08 RMS 1.12E-08

Current DIIS subspace size = 13
REM_GRID_RESTART_DIIS = 0

   13    -152.7563115946      1.12E-08  00000
Finding J and K together
 Job number = 22, Threshold = 1.00E-11
Integral type ranges set in mkLRange.C for JobNum: 22  <1-6|1-6>
 MakeJK  time:  CPU       0.20 s  wall       0.21 s
Fock build time:  0.20 s (CPU) 0.21 s (wall)
DIIS Errors:  Max 1.40E-08 RMS 2.44E-09

Current DIIS subspace size = 14
REM_GRID_RESTART_DIIS = 0

   14    -152.7563115946      2.44E-09  00000 Convergence criterion met
 ---------------------------------------
 SCF time:  CPU 2.57 s  wall 2.72 s
 SCF   energy in the final basis set = -152.75631159
 Total energy in the final basis set = -152.75631159
drvman_main.C: 73: calling DrvMan  Calculating analytic gradient of the SCF energy
drvman.C : 218: Calculating analytic gradient of the SCF energy
drvman.C: 244: calling SCF_Grad for normal SCF gradient
 Job number = 111, Threshold = 1.00E-11
Integral type ranges set in mkLRange.C for JobNum: 11  <1-6|7-7>
Finding J and K together
 ML is being used
 Job number = 122, Threshold = 1.00E-11
Integral type ranges set in mkLRange.C for JobNum: 22  <1-6|1-6>
 MakeJK  time:  CPU       0.45 s  wall       0.45 s
 Gradient of SCF Energy
            1           2           3           4           5           6
    1  -0.1164480   0.2071826  -0.0096249   0.0324547  -0.0365813   0.0005904
    2  -0.1556313  -0.0603754   0.0954207   0.0598952   0.0296241  -0.0663527
    3  -0.0253947  -0.0694297   0.0263068   0.0291353   0.0961130  -0.0199303
            7           8           9          10
    1  -0.0019777   0.0468145  -0.0711950  -0.0512152
    2  -0.0355845   0.0928313   0.0461226  -0.0059501
    3   0.0186089  -0.0096907   0.0087537  -0.0544724
 Max gradient component =       2.072E-01
 RMS gradient           =       6.997E-02
drvman.C: 248: out of SCF_Grad for normal SCF gradient
 Gradient time:  CPU 0.47 s  wall 0.48 s
 ------------------------------------------------------------------------------
                     drvman        : Timing summary (seconds)
 ------------------------------------------------------------------------------
     job step          cpu (% of tot)      sys (% of tot)     wall (% of tot)
 ------------------------------------------------------------------------------
 ------------------------------------------------------------------------------
   Grand Totals     0.4720E+00          0.3000E-05          0.4757E+00
 ------------------------------------------------------------------------------
drvman_main.C: 77: out of DrvMan  Time for this dynamics step: 3.1 s (CPU) 3.2 s (wall)

TIME STEP #400 (t = 7980.000 a.u. = 193.02697 fs)
--------------------------------------
 Instantaneous Temperature = 5603.3 K
 ----------------------------------------------------------------
             Standard Nuclear Orientation (Angstroms)
    I     Atom           X                Y                Z
 ----------------------------------------------------------------
    1      C       3.8953901167    -0.8438523816    -0.7350438986
    2      C       4.5404620164    -0.6048229225    -1.9588451206
    3      H       3.2744786362     0.1897859862    -0.4456314942
    4      H       4.5603948918    -0.7248303188     0.1256135612
    5      C       3.4160359037     0.2384901147    -2.7702274711
    6      C       3.7974276490     1.1283788280    -3.6973706562
    7      H       2.9917177747     1.0905973915    -4.4499742221
    8      H       4.6262477728     2.1485479097    -3.7491641781
    9      H       5.1180165586    -0.6994454700    -2.7789939861
   10      H       2.4898482437    -0.2451381277    -3.2573675401
 ----------------------------------------------------------------
 Nuclear Repulsion Energy =   101.3289493583 hartrees
 There are       15 alpha and       15 beta electrons

                       Distance Matrix (Angstroms)
             C (  1)   C (  2)   H (  3)   H (  4)   C (  5)   C (  6)
   C (  2)  1.403903
   H (  3)  1.240040  2.126954
   H (  4)  1.094134  2.088006  1.678221
   C (  5)  2.354404  1.622915  2.329411  3.259362
   C (  6)  3.560151  2.564870  3.424652  4.316447  1.340506
   H (  7)  4.284790  3.388035  4.114143  5.166481  1.930721  1.103181
   H (  8)  4.309702  3.285369  4.071530  4.824370  2.463991  1.315435
   H (  9)  2.386085  1.007555  3.103860  2.957758  1.943332  2.434813
   H ( 10)  2.948919  2.453681  2.951383  3.995226  1.152834  1.946771
             H (  7)   H (  8)   H (  9)
   H (  8)  2.069319
   H (  9)  3.243081  3.048628
   H ( 10)  1.859670  3.245890  2.709706

 Applying Cartesian multipole field
    Component          Value
    ---------          -----
     (2,0,0)        1.00000E-11
     (0,2,0)        2.00000E-11
     (0,0,2)       -3.00000E-11
 Nucleus-field energy     =    -0.0000000040 hartrees
 ENuRep (before)= 101.3289493583
 ENucField = -0.0000000040
 ENuRep (after) = 101.3289493543
 Job number = 2, Threshold = 1.00E-11
Integral type ranges set in mkLRange.C for JobNum: 2  <1-6|1-6>
Symmetry turned off temporarily
Symmetry turned back on
 Job number = 11, Threshold = 1.00E-11
Integral type ranges set in mkLRange.C for JobNum: 11  <1-6|7-7>
 Smallest overlap matrix eigenvalue = 1.88E-01
 Multipole matrices computed through 2nd order
 Extrapolating the Fock matrix using 12 points and a 6th-order polynomial
 Alpha Fock matrix extrapolation
 Skip SCF guess (diagonalize extrapolated Fock matrix instead)
 SCF convergence criterion is 10**(-8)
 A restricted Hartree-Fock SCF calculation will be
 performed using Pulay DIIS extrapolation
 SCF converges when DIIS error is below 1.0E-08
Extrapolated Fock matrix used in lieu of Fock build
Fock build time:  0.00 s (CPU) 0.00 s (wall)
DIIS Errors:  Max 1.49E-01 RMS 1.82E-02

Current DIIS subspace size = 1
REM_GRID_RESTART_DIIS = 0

 ---------------------------------------
  Cycle       Energy         DIIS Error
 ---------------------------------------
    1    -306.3318835586      1.82E-02  00000
Finding J and K together
 Job number = 22, Threshold = 1.00E-11
Integral type ranges set in mkLRange.C for JobNum: 22  <1-6|1-6>
 MakeJK  time:  CPU       0.13 s  wall       0.13 s
Fock build time:  0.13 s (CPU) 0.13 s (wall)
DIIS Errors:  Max 1.74E-01 RMS 1.37E-02

Current DIIS subspace size = 2
REM_GRID_RESTART_DIIS = 0

    2    -152.7489817167      1.37E-02  00000
Finding J and K together
 Job number = 22, Threshold = 1.00E-11
Integral type ranges set in mkLRange.C for JobNum: 22  <1-6|1-6>
 MakeJK  time:  CPU       0.14 s  wall       0.14 s
Fock build time:  0.14 s (CPU) 0.14 s (wall)
DIIS Errors:  Max 7.73E-02 RMS 6.20E-03

Current DIIS subspace size = 3
REM_GRID_RESTART_DIIS = 0

    3    -152.7520780012      6.20E-03  00000
Finding J and K together
 Job number = 22, Threshold = 1.00E-11
Integral type ranges set in mkLRange.C for JobNum: 22  <1-6|1-6>
 MakeJK  time:  CPU       0.18 s  wall       0.18 s
Fock build time:  0.18 s (CPU) 0.18 s (wall)
DIIS Errors:  Max 1.78E-03 RMS 2.57E-04

Current DIIS subspace size = 4
REM_GRID_RESTART_DIIS = 0

    4    -152.7529327157      2.57E-04  00000
Finding J and K together
 Job number = 22, Threshold = 1.00E-11
Integral type ranges set in mkLRange.C for JobNum: 22  <1-6|1-6>
 MakeJK  time:  CPU       0.15 s  wall       0.15 s
Fock build time:  0.15 s (CPU) 0.15 s (wall)
DIIS Errors:  Max 5.23E-04 RMS 7.57E-05

Current DIIS subspace size = 5
REM_GRID_RESTART_DIIS = 0

    5    -152.7529390429      7.57E-05  00000
Finding J and K together
 Job number = 22, Threshold = 1.00E-11
Integral type ranges set in mkLRange.C for JobNum: 22  <1-6|1-6>
 MakeJK  time:  CPU       0.20 s  wall       0.20 s
Fock build time:  0.20 s (CPU) 0.20 s (wall)
DIIS Errors:  Max 1.44E-04 RMS 3.58E-05

Current DIIS subspace size = 6
REM_GRID_RESTART_DIIS = 0

    6    -152.7529404229      3.58E-05  00000
Finding J and K together
 Job number = 22, Threshold = 1.00E-11
Integral type ranges set in mkLRange.C for JobNum: 22  <1-6|1-6>
 MakeJK  time:  CPU       0.18 s  wall       0.18 s
Fock build time:  0.18 s (CPU) 0.18 s (wall)
DIIS Errors:  Max 6.15E-05 RMS 1.27E-05

Current DIIS subspace size = 7
REM_GRID_RESTART_DIIS = 0

    7    -152.7529406685      1.27E-05  00000
Finding J and K together
 Job number = 22, Threshold = 1.00E-11
Integral type ranges set in mkLRange.C for JobNum: 22  <1-6|1-6>
 MakeJK  time:  CPU       0.19 s  wall       0.19 s
Fock build time:  0.19 s (CPU) 0.19 s (wall)
DIIS Errors:  Max 3.55E-05 RMS 5.50E-06

Current DIIS subspace size = 8
REM_GRID_RESTART_DIIS = 0

    8    -152.7529407210      5.50E-06  00000
Finding J and K together
 Job number = 22, Threshold = 1.00E-11
Integral type ranges set in mkLRange.C for JobNum: 22  <1-6|1-6>
 MakeJK  time:  CPU       0.16 s  wall       0.16 s
Fock build time:  0.16 s (CPU) 0.16 s (wall)
DIIS Errors:  Max 6.66E-06 RMS 1.26E-06

Current DIIS subspace size = 9
REM_GRID_RESTART_DIIS = 0

    9    -152.7529407264      1.26E-06  00000
Finding J and K together
 Job number = 22, Threshold = 1.00E-11
Integral type ranges set in mkLRange.C for JobNum: 22  <1-6|1-6>
 MakeJK  time:  CPU       0.15 s  wall       0.15 s
Fock build time:  0.15 s (CPU) 0.15 s (wall)
DIIS Errors:  Max 2.40E-06 RMS 4.27E-07

Current DIIS subspace size = 10
REM_GRID_RESTART_DIIS = 0

   10    -152.7529407270      4.27E-07  00000
Finding J and K together
 Job number = 22, Threshold = 1.00E-11
Integral type ranges set in mkLRange.C for JobNum: 22  <1-6|1-6>
 MakeJK  time:  CPU       0.16 s  wall       0.17 s
Fock build time:  0.16 s (CPU) 0.17 s (wall)
DIIS Errors:  Max 6.37E-07 RMS 1.22E-07

Current DIIS subspace size = 11
REM_GRID_RESTART_DIIS = 0

   11    -152.7529407270      1.22E-07  00000
Finding J and K together
 Job number = 22, Threshold = 1.00E-11
Integral type ranges set in mkLRange.C for JobNum: 22  <1-6|1-6>
 MakeJK  time:  CPU       0.18 s  wall       0.18 s
Fock build time:  0.18 s (CPU) 0.18 s (wall)
DIIS Errors:  Max 1.08E-07 RMS 2.26E-08

Current DIIS subspace size = 12
REM_GRID_RESTART_DIIS = 0

   12    -152.7529407270      2.26E-08  00000
Finding J and K together
 Job number = 22, Threshold = 1.00E-11
Integral type ranges set in mkLRange.C for JobNum: 22  <1-6|1-6>
 MakeJK  time:  CPU       0.18 s  wall       0.18 s
Fock build time:  0.18 s (CPU) 0.18 s (wall)
DIIS Errors:  Max 3.54E-08 RMS 4.71E-09

Current DIIS subspace size = 13
REM_GRID_RESTART_DIIS = 0

   13    -152.7529407270      4.71E-09  00000 Convergence criterion met
 ---------------------------------------
 SCF time:  CPU 2.03 s  wall 2.04 s
 SCF   energy in the final basis set = -152.75294073
 Total energy in the final basis set = -152.75294073
drvman_main.C: 73: calling DrvMan  Calculating analytic gradient of the SCF energy
drvman.C : 218: Calculating analytic gradient of the SCF energy
drvman.C: 244: calling SCF_Grad for normal SCF gradient
 Job number = 111, Threshold = 1.00E-11
Integral type ranges set in mkLRange.C for JobNum: 11  <1-6|7-7>
Finding J and K together
 ML is being used
 Job number = 122, Threshold = 1.00E-11
Integral type ranges set in mkLRange.C for JobNum: 22  <1-6|1-6>
 MakeJK  time:  CPU       0.45 s  wall       0.45 s
 Gradient of SCF Energy
            1           2           3           4           5           6
    1  -0.0735342   0.2242238  -0.0078777  -0.0065962  -0.0475507  -0.0087471
    2  -0.1521394  -0.0703834   0.0924933   0.0625493   0.0373345  -0.0937460
    3  -0.0139989  -0.0730981   0.0365424  -0.0101714   0.0787305   0.0036328
            7           8           9          10
    1  -0.0219225   0.0682411  -0.0900141  -0.0362224
    2  -0.0398415   0.1109767   0.0494838   0.0032727
    3   0.0045325  -0.0069837   0.0336212  -0.0528073
 Max gradient component =       2.242E-01
 RMS gradient           =       7.233E-02
drvman.C: 248: out of SCF_Grad for normal SCF gradient
 Gradient time:  CPU 0.46 s  wall 0.47 s
 ------------------------------------------------------------------------------
                     drvman        : Timing summary (seconds)
 ------------------------------------------------------------------------------
     job step          cpu (% of tot)      sys (% of tot)     wall (% of tot)
 ------------------------------------------------------------------------------
 ------------------------------------------------------------------------------
   Grand Totals     0.4640E+00          0.2000E-05          0.4690E+00
 ------------------------------------------------------------------------------
drvman_main.C: 77: out of DrvMan  Time for this dynamics step: 2.5 s (CPU) 2.6 s (wall)

=============== TIME STEPS COMPLETED ==================

Step-to-Step energy fluctuations, |E(n) - E(n-1)|
Mean: -4.977e-06   Max: 1.339e-02   RMS: 2.006e-03
Overall energy fluctuations, |E(n) - E(0)|
Mean: -1.806e-03   Max: 8.275e-03   RMS: 1.860e-03   RMS(dE)/RMS(dV): 2.673e-02
Kinetic energy fluctuations, |T(n) - V(0)|
Mean: 2.223e-01   Max: 3.906e-01   RMS: 6.843e-02
Potential energy fluctuations, |V(n) - V(0)|
Mean: -2.241e-01   Max: 3.961e-01   RMS: 6.958e-02


 JobOver = TRUE
Archival summary:
1\1\qciep03\JobtypUnspecified\HF\STO-3G\46\jcartus\MonJun1812:28:442018MonJun1812:28:442018\0\\#,JobtypUnspecified,HF,STO-3G,\\0,1\C\H,1,1.15283\C,1,1.34051,2,102.405\H,3,1.10318,1,103.964,2,6.73883,0\H,3,1.31544,1,136.165,2,167.334,0\C,1,1.62291,2,123.36,3,-138.584,0\H,6,1.00755,1,92.2347,2,93.8285,0\C,6,1.4039,1,101.884,2,-76.8839,0\H,8,1.09413,6,112.824,1,-138.735,0\H,8,1.24004,6,106.954,1,-39.3886,0\\HF=-152.752941\\@

 Total job time:  1085.55s(wall), 1045.25s(cpu) 
 Mon Jun 18 12:28:44 2018

        *************************************************************
        *                                                           *
        *  Thank you very much for using Q-Chem.  Have a nice day.  *
        *                                                           *
        *************************************************************


*** MISSION COMPLETED -- STARFLEET OUT ***

0 sent ACK to 0 
now end server 0 ... 
