Process 0 of 1 is on qciep03 - thread support 0
initial socket setup ...start
initial socket setup ...done 
now start server 0 ... 
qciep03.tugraz.at 127.0.1
Q-Chem Developer Version! Running on 127.0.1.*
                  Welcome to Q-Chem
     A Quantum Leap Into The Future Of Chemistry


 Q-Chem 5.0, Q-Chem, Inc., Pleasanton, CA (2017)

 Yihan Shao,  Zhengting Gan,  E. Epifanovsky,  A. T. B. Gilbert,  M. Wormit,  
 J. Kussmann,  A. W. Lange,  A. Behn,  Jia Deng,  Xintian Feng,  D. Ghosh,  
 M. Goldey,  P. R. Horn,  L. D. Jacobson,  I. Kaliman,  T. Kus,  A. Landau,  
 Jie Liu,  E. I. Proynov,  R. M. Richard,  R. P. Steele,  E. J. Sundstrom,  
 H. L. Woodcock III,  P. M. Zimmerman,  D. Zuev,  B. Albrecht,  E. Alguire,  
 S. A. Baeppler,  D. Barton,  Z. Benda,  Y. A. Bernard,  E. J. Berquist,  
 K. B. Bravaya,  H. Burton,  D. Casanova,  Chun-Min Chang,  Yunqing Chen,  
 A. Chien,  K. D. Closser,  M. P. Coons,  S. Dasgupta,  A. L. Dempwolff,  
 M. Diedenhofen,  Hainam Do,  R. G. Edgar,  Po-Tung Fang,  S. Fatehi,  
 Qingguo Feng,  J. Fosso-Tande,  Qinghui Ge,  A. Ghysels,  G. Gidofalvi,  
 J. Gomes,  J. Gonthier,  A. Gunina,  M. W. D. Hanson-Heine,  
 P. H. P. Harbach,  A. W. Hauser,  J. E. Herr,  E. G. Hohenstein,  
 Z. C. Holden,  Kerwin Hui,  T.-C. Jagau,  Hyunjun Ji,  B. Kaduk,  
 K. Khistyaev,  Jaehoon Kim,  P. Klunzinger,  K. Koh,  D. Kosenkov,  
 L. Koulias,  T. Kowalczyk,  C. M. Krauter,  A. Kunitsa,  Ka Un Lao,  
 A. Laurent,  K. V. Lawler,  Joonho Lee,  D. Lefrancois,  S. Lehtola,  
 D. S. Levine,  Yi-Pei Li,  You-Sheng Lin,  Fenglai Liu,  E. Livshits,  
 A. Luenser,  P. Manohar,  E. Mansoor,  S. F. Manzer,  Shan-Ping Mao,  
 Yuezhi Mao,  N. Mardirossian,  A. V. Marenich,  T. Markovich,  
 L. A. Martinez-Martinez,  S. A. Maurer,  N. J. Mayhall,  S. C. McKenzie,  
 J.-M. Mewes,  A. F. Morrison,  J. W. Mullinax,  K. Nanda,  
 T. S. Nguyen-Beck,  R. Olivares-Amaya,  J. A. Parkhill,  T. M. Perrine,  
 F. Plasser,  S. Prager,  A. Prociuk,  E. Ramos,  D. R. Rehn,  F. Rob,  
 M. Schneider,  N. Sergueev,  S. M. Sharada,  S. Sharma,  D. W. Small,  
 T. Stauch,  T. Stein,  Yu-Chuan Su,  A. J. W. Thom,  A. Tkatchenko,  
 T. Tsuchimochi,  L. Vogt,  O. Vydrov,  M. A. Watson,  J. Wenzel,  
 M. de Wergifosse,  T. A. Wesolowski,  A. White,  J. Witte,  A. Yamada,  
 Jun Yang,  K. Yao,  S. Yeganeh,  S. R. Yost,  Zhi-Qiang You,  A. Zech,  
 Igor Ying Zhang,  Xing Zhang,  Yan Zhao,  Ying Zhu,  B. R. Brooks,  
 G. K. L. Chan,  C. J. Cramer,  M. S. Gordon,  W. J. Hehre,  A. Klamt,  
 M. W. Schmidt,  C. D. Sherrill,  D. G. Truhlar,  A. Aspuru-Guzik,  R. Baer,  
 A. T. Bell,  N. A. Besley,  Jeng-Da Chai,  R. A. DiStasio Jr.,  A. Dreuw,  
 B. D. Dunietz,  T. R. Furlani,  Chao-Ping Hsu,  Yousung Jung,  Jing Kong,  
 D. S. Lambrecht,  WanZhen Liang,  C. Ochsenfeld,  V. A. Rassolov,  
 L. V. Slipchenko,  J. E. Subotnik,  T. Van Voorhis,  J. M. Herbert,  
 A. I. Krylov,  P. M. W. Gill,  M. Head-Gordon

 Contributors to earlier versions of Q-Chem not listed above: 
 R. D. Adamson,  B. Austin,  J. Baker,  G. J. O. Beran,  K. Brandhorst,  
 S. T. Brown,  E. F. C. Byrd,  A. K. Chakraborty,  C.-L. Cheng,  
 Siu Hung Chien,  D. M. Chipman,  D. L. Crittenden,  H. Dachsel,  
 R. J. Doerksen,  A. D. Dutoi,  L. Fusti-Molnar,  W. A. Goddard III,  
 A. Golubeva-Zadorozhnaya,  S. R. Gwaltney,  G. Hawkins,  A. Heyden,  
 S. Hirata,  G. Kedziora,  F. J. Keil,  C. Kelley,  Jihan Kim,  R. A. King,  
 R. Z. Khaliullin,  P. P. Korambath,  W. Kurlancheek,  A. M. Lee,  M. S. Lee,  
 S. V. Levchenko,  Ching Yeh Lin,  D. Liotard,  R. C. Lochan,  I. Lotan,  
 P. E. Maslen,  N. Nair,  D. P. O'Neill,  D. Neuhauser,  E. Neuscamman,  
 C. M. Oana,  R. Olson,  B. Peters,  R. Peverati,  P. A. Pieniazek,  
 Y. M. Rhee,  J. Ritchie,  M. A. Rohrdanz,  E. Rosta,  N. J. Russ,  
 H. F. Schaefer III,  N. E. Schultz,  N. Shenvi,  A. C. Simmonett,  A. Sodt,  
 D. Stuck,  K. S. Thanthiriwatte,  V. Vanovschi,  Tao Wang,  A. Warshel,  
 C. F. Williams,  Q. Wu,  X. Xu,  W. Zhang

 Please cite Q-Chem as follows:
 Y. Shao et al., Mol. Phys. 113, 184-215 (2015)
 DOI: 10.1080/00268976.2014.952696

 Q-Chem 5.0.2 for Intel X86 EM64T Linux

 Parts of Q-Chem use Armadillo 5.200.1 (Boston Tea Smuggler).
 http://arma.sourceforge.net/

 Q-Chem begins on Mon Jun 18 12:31:56 2018  


Host: 0

     Scratch files written to /home/jcartus/scratch/Butadien_19.mol.dir//
 Using version located at /usr/local/qchem/bin/qchem

 Parallel job on  1  processors
Symmetry disabled for AIMD jobs.

Total Memory Limit in MB = 2000
Mega-Array Size in MB = 192

Checking the input file for inconsistencies... 	...done.
Finally everything over in PARseQInput

--------------------------------------------------------------
User input:
--------------------------------------------------------------
$rem
AIMD_STEPS                    400
FOCK_EXTRAP_POINTS            12
MAX_SCF_CYCLES                100
BASIS                         sto-3g
AIMD_INIT_VELOC               thermal
FOCK_EXTRAP_ORDER             6
AIMD_TEMP                     400
AIMD_METHOD                   bomd
TIME_STEP                     20
METHOD                        hf
JOBTYPE                       aimd
$end

$molecule
0 1
C    4.59612    -0.38493    -0.68574
C    3.77446    0.17247    -1.72441
H    5.62856    -0.71465    -1.16375
H    4.35614    -0.59037    0.75516
C    3.83090    0.34113    -3.26097
C    4.72291    0.28156    -4.22698
H    4.84068    0.59576    -5.46679
H    5.59882    0.37418    -4.42153
H    2.77943    0.35232    -0.93454
H    2.81818    0.65236    -3.59510
$end


--------------------------------------------------------------
 ----------------------------------------------------------------
             Standard Nuclear Orientation (Angstroms)
    I     Atom           X                Y                Z
 ----------------------------------------------------------------
    1      C       4.5961200000    -0.3849300000    -0.6857400000
    2      C       3.7744600000     0.1724700000    -1.7244100000
    3      H       5.6285600000    -0.7146500000    -1.1637500000
    4      H       4.3561400000    -0.5903700000     0.7551600000
    5      C       3.8309000000     0.3411300000    -3.2609700000
    6      C       4.7229100000     0.2815600000    -4.2269800000
    7      H       4.8406800000     0.5957600000    -5.4667900000
    8      H       5.5988200000     0.3741800000    -4.4215300000
    9      H       2.7794300000     0.3523200000    -0.9345400000
   10      H       2.8181800000     0.6523600000    -3.5951000000
 ----------------------------------------------------------------
 Nuclear Repulsion Energy =    97.6960837127 hartrees
 There are       15 alpha and       15 beta electrons
 Requested basis set is STO-3G
 There are 14 shells and 26 basis functions

 Total QAlloc Memory Limit   2000 MB
 Mega-Array Size       188 MB
 MEM_STATIC part       192 MB

finished with qalloc call

                       Distance Matrix (Angstroms)
             C (  1)   C (  2)   H (  3)   H (  4)   C (  5)   C (  6)
   C (  2)  1.436891
   H (  3)  1.184543  2.130495
   H (  4)  1.475123  2.658673  2.305800
   C (  5)  2.782900  1.546819  2.957124  4.156064
   C (  6)  3.605644  2.678491  3.346045  5.071144  1.316209
   H (  7)  4.886717  3.914257  4.566627  6.352507  2.439290  1.284414
   H (  8)  3.941799  3.262427  3.435050  5.410428  2.115073  0.902024
   H (  9)  1.976310  1.283092  3.050984  2.495950  2.553036  3.823909
   H ( 10)  3.563905  2.155051  3.959598  4.778542  1.110904  2.040775
             H (  7)   H (  8)   H (  9)
   H (  8)  1.310131
   H (  9)  4.984908  4.484254
   H ( 10)  2.756253  2.914160  2.677705

 Job number = 2, Threshold = 1.00E-11
Integral type ranges set in mkLRange.C for JobNum: 2  <1-6|1-6>
Symmetry turned off temporarily
 Using the largest function pair in Schwarz integrals
Total number of integrals generated =            3252
Symmetry turned back on
 A cutoff of  1.0D-11 yielded    102 shell pairs
 There are       372 function pairs
 Job number = 11, Threshold = 1.00E-11
Integral type ranges set in mkLRange.C for JobNum: 11  <1-6|7-7>
Total number of integrals generated =            3720
 Smallest overlap matrix eigenvalue = 1.91E-01
 Multipole matrices computed through 2nd order

 Scale SEOQF with 1.000000e-02/1.000000e+00/1.000000e-02

 Standard Electronic Orientation quadrupole field applied
 Nucleus-field energy     =     0.0000000022 hartrees
 ENuRep (before)= 97.6960837127
 ENucField = 0.0000000022
 ENuRep (after) = 97.6960837149
 Guess from superposition of atomic densities
 Warning:  Energy on first SCF cycle will be non-variational
 SAD guess density has 30.000000 electrons

 ==================================================
    GEN_SCFMAN: A general SCF calculation manager  
                                                   
    Authors:                                       
        -- Eric Jon Sundstrom 2008-2014            
        -- Paul Horn 2010-2015                     
        -- Yuezhi Mao 2012-                        
        -- Dmitri Zuev 2014                        
        -- Alec White 2015-                        
        -- David Stuck 2015                        
        -- Shaama M.S. 2015                        
        -- Shane Yost 2015-                         
        -- Joonho Lee 2016-                        
        -- David Small 2016-                       
        -- Daniel Levine 2016-                     
        -- Susi Lehtola 2017-                      
        -- Hugh Burton 2017-                       
 ==================================================
 Hartree-Fock
Finding J and K together
 Job number = 22, Threshold = 1.00E-11
Integral type ranges set in mkLRange.C for JobNum: 22  <1-6|1-6>
 MakeJK  time:  CPU       0.15 s  wall       0.16 s
 A restricted SCF calculation will be
 performed using DIIS
 SCF converges when DIIS error is below 1.0e-08
 ---------------------------------------
  Cycle       Energy         DIIS error
 ---------------------------------------
Finding J and K together
 Job number = 22, Threshold = 1.00E-11
Integral type ranges set in mkLRange.C for JobNum: 22  <1-6|1-6>
 MakeJK  time:  CPU       0.19 s  wall       0.20 s
    1    -151.9661364776      1.90e-01  
Finding J and K together
 Job number = 22, Threshold = 1.00E-11
Integral type ranges set in mkLRange.C for JobNum: 22  <1-6|1-6>
 MakeJK  time:  CPU       0.18 s  wall       0.18 s
    2    -152.6530639154      1.44e-02  
Finding J and K together
 Job number = 22, Threshold = 1.00E-11
Integral type ranges set in mkLRange.C for JobNum: 22  <1-6|1-6>
 MakeJK  time:  CPU       0.20 s  wall       0.21 s
    3    -152.6850692201      5.58e-03  
Finding J and K together
 Job number = 22, Threshold = 1.00E-11
Integral type ranges set in mkLRange.C for JobNum: 22  <1-6|1-6>
 MakeJK  time:  CPU       0.19 s  wall       0.20 s
    4    -152.6886185848      2.56e-03  
Finding J and K together
 Job number = 22, Threshold = 1.00E-11
Integral type ranges set in mkLRange.C for JobNum: 22  <1-6|1-6>
 MakeJK  time:  CPU       0.18 s  wall       0.19 s
    5    -152.6894219800      4.52e-04  
Finding J and K together
 Job number = 22, Threshold = 1.00E-11
Integral type ranges set in mkLRange.C for JobNum: 22  <1-6|1-6>
 MakeJK  time:  CPU       0.19 s  wall       0.20 s
    6    -152.6894474502      1.14e-04  
Finding J and K together
 Job number = 22, Threshold = 1.00E-11
Integral type ranges set in mkLRange.C for JobNum: 22  <1-6|1-6>
 MakeJK  time:  CPU       0.18 s  wall       0.19 s
    7    -152.6894497964      2.84e-05  
Finding J and K together
 Job number = 22, Threshold = 1.00E-11
Integral type ranges set in mkLRange.C for JobNum: 22  <1-6|1-6>
 MakeJK  time:  CPU       0.13 s  wall       0.13 s
    8    -152.6894500530      1.25e-05  
Finding J and K together
 Job number = 22, Threshold = 1.00E-11
Integral type ranges set in mkLRange.C for JobNum: 22  <1-6|1-6>
 MakeJK  time:  CPU       0.14 s  wall       0.14 s
    9    -152.6894500955      2.83e-06  
Finding J and K together
 Job number = 22, Threshold = 1.00E-11
Integral type ranges set in mkLRange.C for JobNum: 22  <1-6|1-6>
 MakeJK  time:  CPU       0.18 s  wall       0.23 s
   10    -152.6894500977      5.82e-07  
Finding J and K together
 Job number = 22, Threshold = 1.00E-11
Integral type ranges set in mkLRange.C for JobNum: 22  <1-6|1-6>
 MakeJK  time:  CPU       0.19 s  wall       0.19 s
   11    -152.6894500978      1.35e-07  
Finding J and K together
 Job number = 22, Threshold = 1.00E-11
Integral type ranges set in mkLRange.C for JobNum: 22  <1-6|1-6>
 MakeJK  time:  CPU       0.19 s  wall       0.19 s
   12    -152.6894500978      3.58e-08  
   13    -152.6894500978      7.80e-09  Convergence criterion met
 ---------------------------------------
 SCF time:   CPU 2.31s  wall 3.00s 
 Total energy in the final basis set =     -152.6894500978
Wall  1 = 3
Clock 1 = 2.3100941181
 ==================================================
                  Done GEN_SCFMAN                  
 ==================================================

Symmetry turned off temporarily

 --------------------------------------------------------------

                    Orbital Energies (a.u.)
 --------------------------------------------------------------

 Alpha MOs
 -- Occupied --
-11.058 -11.021 -11.020 -11.016  -1.000  -0.912  -0.798  -0.663
 -0.564  -0.554  -0.454  -0.379  -0.369  -0.363  -0.252
 -- Virtual --
  0.235   0.354   0.392   0.413   0.542   0.605   0.692   0.763
  0.859   0.935   1.205
 --------------------------------------------------------------

          Ground-State Mulliken Net Atomic Charges

     Atom                 Charge (a.u.)
  ----------------------------------------
      1 C                    -0.057914
      2 C                    -0.053271
      3 H                     0.028151
      4 H                     0.045484
      5 C                    -0.039099
      6 C                    -0.171176
      7 H                     0.045982
      8 H                     0.107223
      9 H                     0.028664
     10 H                     0.065956
  ----------------------------------------
  Sum of atomic charges =     0.000000

 -----------------------------------------------------------------
                    Cartesian Multipole Moments
 -----------------------------------------------------------------
    Charge (ESU x 10^10)
                -0.0000
    Dipole Moment (Debye)
         X       0.1249      Y       0.0972      Z      -0.0001
       Tot       0.1583
    Quadrupole Moments (Debye-Ang)
        XX     -22.0919     XY       0.3578     YY     -24.9376
        XZ      -2.0429     YZ      -1.4985     ZZ     -19.3694
    Octopole Moments (Debye-Ang^2)
       XXX    -288.5950    XXY      -0.4117    XYY    -105.8200
       YYY      -7.6276    XXZ      37.8080    XYZ      -7.1289
       YYZ      61.0999    XZZ     -70.2356    YZZ       4.4667
       ZZZ     148.3577
    Hexadecapole Moments (Debye-Ang^3)
      XXXX   -2549.7844   XXXY     -10.7649   XXYY    -468.7104
      XYYY     -24.8776   YYYY     -41.0056   XXXZ     600.4267
      XXYZ     -20.0430   XYYZ     262.1167   YYYZ      51.7031
      XXZZ    -447.7373   XYZZ      28.0778   YYZZ    -217.7623
      XZZZ     569.0337   YZZZ      10.2137   ZZZZ   -1054.3470
 -----------------------------------------------------------------
drvman_main.C: 73: calling DrvMan  Calculating analytic gradient of the SCF energy
drvman.C : 218: Calculating analytic gradient of the SCF energy
drvman.C: 244: calling SCF_Grad for normal SCF gradient
 Job number = 111, Threshold = 1.00E-11
Integral type ranges set in mkLRange.C for JobNum: 11  <1-6|7-7>
Finding J and K together
 ML is being used
 Job number = 122, Threshold = 1.00E-11
Integral type ranges set in mkLRange.C for JobNum: 22  <1-6|1-6>
Total number of integrals generated =           70085
 MakeJK  time:  CPU       0.48 s  wall       0.66 s
 Gradient of SCF Energy
            1           2           3           4           5           6
    1  -0.0147524   0.0200175   0.0452840  -0.0198065   0.0401151   0.1800769
    2  -0.0058394   0.0463919  -0.0079008  -0.0257270  -0.0149885  -0.0406106
    3   0.0496254  -0.2046171  -0.0539775   0.1559752  -0.0065353   0.0846575
            7           8           9          10
    1   0.1010253  -0.2870820  -0.0528299  -0.0120480
    2   0.0203624   0.0208557  -0.0074481   0.0149043
    3  -0.0742022  -0.0558738   0.1096532  -0.0047052
 Max gradient component =       2.871E-01
 RMS gradient           =       8.907E-02
drvman.C: 248: out of SCF_Grad for normal SCF gradient
 Gradient time:  CPU 0.50 s  wall 0.70 s
 ------------------------------------------------------------------------------
                     drvman        : Timing summary (seconds)
 ------------------------------------------------------------------------------
     job step          cpu (% of tot)      sys (% of tot)     wall (% of tot)
 ------------------------------------------------------------------------------
 ------------------------------------------------------------------------------
   Grand Totals     0.5000E+00          0.2000E-05          0.6956E+00
 ------------------------------------------------------------------------------
drvman_main.C: 77: out of DrvMan =======================================================
            AB INITIO MOLECULAR DYNAMICS
=======================================================
Created directory /home/jcartus/scratch/Butadien_19.mol.dir/AIMD
AIMD will take 400 BOMD steps Velocity Verlet integration
Time step = 20.00000 a.u. ( = 0.48378 fs)
Total simulation time requested = 193.511 fs
Integral threshold = 10**(-11)
SCF convergence threshold = 10**(-8)
Generating viewable xyz trajectory,
 file (in Angstroms) at AIMD/View.xyz
Choosing nuclear velocities from Maxwell-Boltzmann
Velocities sampled from Maxwell-Boltzmann at T = 400.0 K
sqrt(kT/m) and (vx,vy,vz) for each atom:
  1   2.4064e-04   5.18e-05   2.45e-04   2.84e-04 
  2   2.4064e-04  -1.65e-04  -1.77e-04  -3.10e-05 
  3   8.3036e-04  -7.79e-04  -5.62e-04   1.56e-04 
  4   8.3036e-04   1.76e-04  -6.19e-04  -9.08e-04 
  5   2.4064e-04  -1.80e-04   1.69e-04  -5.77e-05 
  6   2.4064e-04  -4.96e-04  -4.32e-04   1.63e-04 
  7   8.3036e-04  -6.16e-04  -1.06e-03  -8.71e-04 
  8   8.3036e-04   2.03e-04  -2.35e-04  -1.40e-04 
  9   8.3036e-04  -1.45e-03  -3.18e-04   1.09e-03 
 10   8.3036e-04  -6.44e-04  -1.53e-03  -5.56e-04 
T(nuclear) = 0.01808185 a.u.
v(c.o.m.) = ( -2.3332e-04,  -1.2388e-04,   5.6818e-05)
T(c.o.m.) = 3.59667e-03 a.u.
kT/2 = 0.000633 a.u.
Tx   = 0.006667 a.u.
Ty   = 0.007315 a.u.
Tz   = 0.004100 a.u.
Mean velocities (a.u.):  -3.9030e-04  -4.5144e-04  -8.6700e-05
Removing c.o.m. velocity
T(nuclear) = 0.01630631 a.u.
v(c.o.m.) = (  7.2120e-20,   2.4791e-20,  -6.7613e-21)
T(c.o.m.) = 2.88752e-34 a.u.
kT   = 0.001267 a.u. = 0.79 kcal/mol
Tx   = 0.006806 a.u. = 4.27 kcal/mol
Ty   = 0.004374 a.u. = 2.74 kcal/mol
Tz   = 0.005126 a.u. = 3.22 kcal/mol
Initial velocities in m/s
  1      3.4313e+02      6.5844e+02      5.6591e+02 
  2     -1.3139e+02     -2.6547e+02     -1.2390e+02 
  3      1.0326e+03      2.2448e+02     -3.2528e+02 
  4      3.1223e+03      1.0017e+02     -2.6524e+03 
  5     -1.6329e+02      4.9189e+02     -1.8222e+02 
  6     -8.5573e+02     -8.2363e+02      3.0135e+02 
  7      1.3897e+03     -8.5853e+02     -2.5728e+03 
  8      3.1807e+03      9.3921e+02     -9.7395e+02 
  9     -4.4061e+02      7.5742e+02      1.7259e+03 
 10      1.3275e+03     -1.8917e+03     -1.8828e+03 
----------------------------------------------------------------------------
       Nuclear coordinates (Angst) and velocities (a.u.)
----------------------------------------------------------------------------
             x        y        z            v_x         v_y        v_z
----------------------------------------------------------------------------
1      C    4.5961  -0.3849  -0.6857     1.5684e-04   3.0097e-04   2.5868e-04
2      C    3.7745   0.1725  -1.7244    -6.0058e-05  -1.2135e-04  -5.6636e-05
3      H    5.6286  -0.7147  -1.1638     4.7202e-04   1.0261e-04  -1.4869e-04
4      H    4.3561  -0.5904   0.7552     1.4272e-03   4.5787e-05  -1.2124e-03
5      C    3.8309   0.3411  -3.2610    -7.4641e-05   2.2484e-04  -8.3293e-05
6      C    4.7229   0.2816  -4.2270    -3.9116e-04  -3.7648e-04   1.3775e-04
7      H    4.8407   0.5958  -5.4668     6.3523e-04  -3.9244e-04  -1.1760e-03
8      H    5.5988   0.3742  -4.4215     1.4539e-03   4.2931e-04  -4.4520e-04
9      H    2.7794   0.3523  -0.9345    -2.0140e-04   3.4622e-04   7.8891e-04
10     H    2.8182   0.6524  -3.5951     6.0682e-04  -8.6472e-04  -8.6061e-04
----------------------------------------------------------------------------
Write nuclear velocities every 1 time steps

TIME STEP #1 (t = 0.000 a.u. = 0.00000 fs)
--------------------------------------
 Instantaneous Temperature = 343.3 K
 ----------------------------------------------------------------
             Standard Nuclear Orientation (Angstroms)
    I     Atom           X                Y                Z
 ----------------------------------------------------------------
    1      C       4.5978513503    -0.3817163709    -0.6832423554
    2      C       3.7737275198     0.1709612451    -1.7240194222
    3      H       5.6309469080    -0.7131088571    -1.1622141062
    4      H       4.3723857761    -0.5884033220     0.7333426887
    5      C       3.8299159457     0.3435821459    -3.2618199134
    6      C       4.7178989051     0.2777719744    -4.2259317505
    7      H       4.8415830821     0.5904335762    -5.4749617911
    8      H       5.6307455273     0.3775222093    -4.4230229628
    9      H       2.7803418647     0.3564132842    -0.9325074784
   10      H       2.8252963875     0.6423495773    -3.6039372921
 ----------------------------------------------------------------
 Nuclear Repulsion Energy =    97.5908589644 hartrees
 There are       15 alpha and       15 beta electrons

                       Distance Matrix (Angstroms)
             C (  1)   C (  2)   H (  3)   H (  4)   C (  5)   C (  6)
   C (  2)  1.438002
   H (  3)  1.185969  2.132245
   H (  4)  1.449230  2.640768  2.278742
   C (  5)  2.786547  1.548478  2.961191  4.138139
   C (  6)  3.605549  2.676272  3.346919  5.046191  1.312386
   H (  7)  4.895412  3.922479  4.574069  6.336627  2.445895  1.293496
   H (  8)  3.953387  3.282652  3.438365  5.394867  2.143019  0.939193
   H (  9)  1.977450  1.283627  3.053292  2.490450  2.554891  3.821905
   H ( 10)  3.566668  2.157735  3.958656  4.766575  1.102527  2.025275
             H (  7)   H (  8)   H (  9)
   H (  8)  1.332173
   H (  9)  4.993733  4.506545
   H ( 10)  2.751152  2.934549  2.687065

 Applying Cartesian multipole field
    Component          Value
    ---------          -----
     (2,0,0)        1.00000E-12
     (0,2,0)        2.00000E-10
     (0,0,2)       -3.00000E-12
 Nucleus-field energy     =     0.0000000022 hartrees
 ENuRep (before)= 97.5908589644
 ENucField = 0.0000000022
 ENuRep (after) = 97.5908589666
 Job number = 2, Threshold = 1.00E-11
Integral type ranges set in mkLRange.C for JobNum: 2  <1-6|1-6>
Symmetry turned off temporarily
Symmetry turned back on
 Job number = 11, Threshold = 1.00E-11
Integral type ranges set in mkLRange.C for JobNum: 11  <1-6|7-7>
 Smallest overlap matrix eigenvalue = 1.89E-01
 Multipole matrices computed through 2nd order
 Guess from superposition of atomic densities
 Warning:  Energy on first SCF cycle will be non-variational
 SAD guess density has 30.000000 electrons
 SCF convergence criterion is 10**(-8)
 A restricted Hartree-Fock SCF calculation will be
 performed using Pulay DIIS extrapolation
 SCF converges when DIIS error is below 1.0E-08
Finding J and K together
 Job number = 22, Threshold = 1.00E-11
Integral type ranges set in mkLRange.C for JobNum: 22  <1-6|1-6>
 MakeJK  time:  CPU       0.14 s  wall       0.15 s
Fock build time:  0.14 s (CPU) 0.15 s (wall)
DIIS Errors:  Max 1.15E+00 RMS 1.89E-01

Current DIIS subspace size = 1
REM_GRID_RESTART_DIIS = 0

 ---------------------------------------
  Cycle       Energy         DIIS Error
 ---------------------------------------
    1    -151.9449072835      1.89E-01  00000
Finding J and K together
 Job number = 22, Threshold = 1.00E-11
Integral type ranges set in mkLRange.C for JobNum: 22  <1-6|1-6>
 MakeJK  time:  CPU       0.18 s  wall       0.18 s
Fock build time:  0.18 s (CPU) 0.19 s (wall)
DIIS Errors:  Max 7.16E-02 RMS 1.42E-02

Current DIIS subspace size = 2
REM_GRID_RESTART_DIIS = 0

    2    -152.6752790881      1.42E-02  00000
Finding J and K together
 Job number = 22, Threshold = 1.00E-11
Integral type ranges set in mkLRange.C for JobNum: 22  <1-6|1-6>
 MakeJK  time:  CPU       0.19 s  wall       0.20 s
Fock build time:  0.19 s (CPU) 0.20 s (wall)
DIIS Errors:  Max 3.23E-02 RMS 5.44E-03

Current DIIS subspace size = 3
REM_GRID_RESTART_DIIS = 0

    3    -152.7069212008      5.44E-03  00000
Finding J and K together
 Job number = 22, Threshold = 1.00E-11
Integral type ranges set in mkLRange.C for JobNum: 22  <1-6|1-6>
 MakeJK  time:  CPU       0.20 s  wall       0.21 s
Fock build time:  0.20 s (CPU) 0.21 s (wall)
DIIS Errors:  Max 1.76E-02 RMS 2.59E-03

Current DIIS subspace size = 4
REM_GRID_RESTART_DIIS = 0

    4    -152.7103135032      2.59E-03  00000
Finding J and K together
 Job number = 22, Threshold = 1.00E-11
Integral type ranges set in mkLRange.C for JobNum: 22  <1-6|1-6>
 MakeJK  time:  CPU       0.19 s  wall       0.20 s
Fock build time:  0.19 s (CPU) 0.20 s (wall)
DIIS Errors:  Max 3.08E-03 RMS 4.31E-04

Current DIIS subspace size = 5
REM_GRID_RESTART_DIIS = 0

    5    -152.7111174240      4.31E-04  00000
Finding J and K together
 Job number = 22, Threshold = 1.00E-11
Integral type ranges set in mkLRange.C for JobNum: 22  <1-6|1-6>
 MakeJK  time:  CPU       0.12 s  wall       0.12 s
Fock build time:  0.12 s (CPU) 0.12 s (wall)
DIIS Errors:  Max 5.43E-04 RMS 1.08E-04

Current DIIS subspace size = 6
REM_GRID_RESTART_DIIS = 0

    6    -152.7111404490      1.08E-04  00000
Finding J and K together
 Job number = 22, Threshold = 1.00E-11
Integral type ranges set in mkLRange.C for JobNum: 22  <1-6|1-6>
 MakeJK  time:  CPU       0.13 s  wall       0.14 s
Fock build time:  0.13 s (CPU) 0.14 s (wall)
DIIS Errors:  Max 1.46E-04 RMS 2.65E-05

Current DIIS subspace size = 7
REM_GRID_RESTART_DIIS = 0

    7    -152.7111425294      2.65E-05  00000
Finding J and K together
 Job number = 22, Threshold = 1.00E-11
Integral type ranges set in mkLRange.C for JobNum: 22  <1-6|1-6>
 MakeJK  time:  CPU       0.13 s  wall       0.14 s
Fock build time:  0.13 s (CPU) 0.14 s (wall)
DIIS Errors:  Max 6.59E-05 RMS 1.16E-05

Current DIIS subspace size = 8
REM_GRID_RESTART_DIIS = 0

    8    -152.7111427599      1.16E-05  00000
Finding J and K together
 Job number = 22, Threshold = 1.00E-11
Integral type ranges set in mkLRange.C for JobNum: 22  <1-6|1-6>
 MakeJK  time:  CPU       0.12 s  wall       0.12 s
Fock build time:  0.12 s (CPU) 0.12 s (wall)
DIIS Errors:  Max 1.58E-05 RMS 2.81E-06

Current DIIS subspace size = 9
REM_GRID_RESTART_DIIS = 0

    9    -152.7111427964      2.81E-06  00000
Finding J and K together
 Job number = 22, Threshold = 1.00E-11
Integral type ranges set in mkLRange.C for JobNum: 22  <1-6|1-6>
 MakeJK  time:  CPU       0.13 s  wall       0.13 s
Fock build time:  0.13 s (CPU) 0.13 s (wall)
DIIS Errors:  Max 3.50E-06 RMS 7.01E-07

Current DIIS subspace size = 10
REM_GRID_RESTART_DIIS = 0

   10    -152.7111427985      7.01E-07  00000
Finding J and K together
 Job number = 22, Threshold = 1.00E-11
Integral type ranges set in mkLRange.C for JobNum: 22  <1-6|1-6>
 MakeJK  time:  CPU       0.19 s  wall       0.26 s
Fock build time:  0.19 s (CPU) 0.26 s (wall)
DIIS Errors:  Max 8.67E-07 RMS 1.53E-07

Current DIIS subspace size = 11
REM_GRID_RESTART_DIIS = 0

   11    -152.7111427986      1.53E-07  00000
Finding J and K together
 Job number = 22, Threshold = 1.00E-11
Integral type ranges set in mkLRange.C for JobNum: 22  <1-6|1-6>
 MakeJK  time:  CPU       0.19 s  wall       0.20 s
Fock build time:  0.19 s (CPU) 0.20 s (wall)
DIIS Errors:  Max 1.65E-07 RMS 3.59E-08

Current DIIS subspace size = 12
REM_GRID_RESTART_DIIS = 0

   12    -152.7111427986      3.59E-08  00000
Finding J and K together
 Job number = 22, Threshold = 1.00E-11
Integral type ranges set in mkLRange.C for JobNum: 22  <1-6|1-6>
 MakeJK  time:  CPU       0.18 s  wall       0.18 s
Fock build time:  0.18 s (CPU) 0.18 s (wall)
DIIS Errors:  Max 3.39E-08 RMS 7.65E-09

Current DIIS subspace size = 13
REM_GRID_RESTART_DIIS = 0

   13    -152.7111427986      7.65E-09  00000 Convergence criterion met
 ---------------------------------------
 SCF time:  CPU 2.10 s  wall 2.25 s
 SCF   energy in the final basis set = -152.71114280
 Total energy in the final basis set = -152.71114280
drvman_main.C: 73: calling DrvMan  Calculating analytic gradient of the SCF energy
drvman.C : 218: Calculating analytic gradient of the SCF energy
drvman.C: 244: calling SCF_Grad for normal SCF gradient
 Job number = 111, Threshold = 1.00E-11
Integral type ranges set in mkLRange.C for JobNum: 11  <1-6|7-7>
 Warning:  Cost of integrals step H3 set to -1210480309
 Warning:  Retrieved cost of -1210480309 for integrals step H3
 Warning:  Retrieved cost of -1210480309 for integrals step H3
 Warning:  Retrieved cost of -1210480309 for integrals step H3
Finding J and K together
 ML is being used
 Job number = 122, Threshold = 1.00E-11
Integral type ranges set in mkLRange.C for JobNum: 22  <1-6|1-6>
 MakeJK  time:  CPU       0.48 s  wall       0.53 s
 Gradient of SCF Energy
            1           2           3           4           5           6
    1  -0.0171977   0.0195003   0.0462824  -0.0173715   0.0389209   0.1004970
    2  -0.0043774   0.0442347  -0.0086170  -0.0262222  -0.0111515  -0.0470138
    3   0.0536908  -0.2052449  -0.0538507   0.1533933  -0.0127044   0.1061499
            7           8           9          10
    1   0.1008890  -0.2134700  -0.0526705  -0.0053800
    2   0.0215703   0.0256980  -0.0066447   0.0125236
    3  -0.0780167  -0.0685635   0.1098347  -0.0046884
 Max gradient component =       2.135E-01
 RMS gradient           =       7.862E-02
drvman.C: 248: out of SCF_Grad for normal SCF gradient
 Gradient time:  CPU 0.50 s  wall 0.55 s
 ------------------------------------------------------------------------------
                     drvman        : Timing summary (seconds)
 ------------------------------------------------------------------------------
     job step          cpu (% of tot)      sys (% of tot)     wall (% of tot)
 ------------------------------------------------------------------------------
 ------------------------------------------------------------------------------
   Grand Totals     0.5040E+00          0.1000E-05          0.5488E+00
 ------------------------------------------------------------------------------
drvman_main.C: 77: out of DrvMan  Time for this dynamics step: 2.6 s (CPU) 2.9 s (wall)

TIME STEP #2 (t = 20.000 a.u. = 0.48378 fs)
--------------------------------------
 Instantaneous Temperature = 780.5 K
 ----------------------------------------------------------------
             Standard Nuclear Orientation (Angstroms)
    I     Atom           X                Y                Z
 ----------------------------------------------------------------
    1      C       4.5997491144    -0.3784603837    -0.6812642513
    2      C       3.7728063438     0.1690244519    -1.7216427851
    3      H       5.6280013309    -0.7105748979    -1.1544737367
    4      H       4.3906330357    -0.5834154197     0.6938519748
    5      C       3.8285552718     0.3461421997    -3.2625468923
    6      C       4.7119153479     0.2744388795    -4.2259106639
    7      H       4.8308621104     0.5826219073    -5.4741447893
    8      H       5.6872662695     0.3779035871    -4.4166162911
    9      H       2.7873222259     0.3612721444    -0.9431297039
   10      H       2.8330326345     0.6308962290    -3.6122344015
 ----------------------------------------------------------------
 Nuclear Repulsion Energy =    97.5368039871 hartrees
 There are       15 alpha and       15 beta electrons

                       Distance Matrix (Angstroms)
             C (  1)   C (  2)   H (  3)   H (  4)   C (  5)   C (  6)
   C (  2)  1.437345
   H (  3)  1.179631  2.130053
   H (  4)  1.405945  2.604322  2.227904
   C (  5)  2.789769  1.552052  2.966248  4.102816
   C (  6)  3.606020  2.676639  3.353087  5.004318  1.309021
   H (  7)  4.893751  3.920691  4.579012  6.292665  2.439612  1.291206
   H (  8)  3.963286  3.312351  3.439458  5.359317  2.188079  0.999191
   H (  9)  1.975011  1.270520  3.043514  2.478457  2.542458  3.806343
   H ( 10)  3.568007  2.161212  3.956259  4.737410  1.092901  2.008447
             H (  7)   H (  8)   H (  9)
   H (  8)  1.376119
   H (  9)  4.975455  4.524938
   H ( 10)  2.731367  2.976186  2.683078

 Applying Cartesian multipole field
    Component          Value
    ---------          -----
     (2,0,0)        1.00000E-12
     (0,2,0)        2.00000E-10
     (0,0,2)       -3.00000E-12
 Nucleus-field energy     =     0.0000000021 hartrees
 ENuRep (before)= 97.5368039871
 ENucField = 0.0000000021
 ENuRep (after) = 97.5368039892
 Job number = 2, Threshold = 1.00E-11
Integral type ranges set in mkLRange.C for JobNum: 2  <1-6|1-6>
Symmetry turned off temporarily
Symmetry turned back on
 Job number = 11, Threshold = 1.00E-11
Integral type ranges set in mkLRange.C for JobNum: 11  <1-6|7-7>
 Smallest overlap matrix eigenvalue = 1.87E-01
 Multipole matrices computed through 2nd order
 Guess from superposition of atomic densities
 Warning:  Energy on first SCF cycle will be non-variational
 SAD guess density has 30.000000 electrons
 SCF convergence criterion is 10**(-8)
 A restricted Hartree-Fock SCF calculation will be
 performed using Pulay DIIS extrapolation
 SCF converges when DIIS error is below 1.0E-08
Finding J and K together
 Job number = 22, Threshold = 1.00E-11
Integral type ranges set in mkLRange.C for JobNum: 22  <1-6|1-6>
 MakeJK  time:  CPU       0.14 s  wall       0.14 s
Fock build time:  0.14 s (CPU) 0.14 s (wall)
DIIS Errors:  Max 1.15E+00 RMS 1.87E-01

Current DIIS subspace size = 1
REM_GRID_RESTART_DIIS = 0

 ---------------------------------------
  Cycle       Energy         DIIS Error
 ---------------------------------------
    1    -151.9290861554      1.87E-01  00000
Finding J and K together
 Job number = 22, Threshold = 1.00E-11
Integral type ranges set in mkLRange.C for JobNum: 22  <1-6|1-6>
 MakeJK  time:  CPU       0.13 s  wall       0.13 s
Fock build time:  0.13 s (CPU) 0.13 s (wall)
DIIS Errors:  Max 7.12E-02 RMS 1.40E-02

Current DIIS subspace size = 2
REM_GRID_RESTART_DIIS = 0

    2    -152.7146749766      1.40E-02  00000
Finding J and K together
 Job number = 22, Threshold = 1.00E-11
Integral type ranges set in mkLRange.C for JobNum: 22  <1-6|1-6>
 MakeJK  time:  CPU       0.14 s  wall       0.14 s
Fock build time:  0.14 s (CPU) 0.14 s (wall)
DIIS Errors:  Max 2.96E-02 RMS 5.21E-03

Current DIIS subspace size = 3
REM_GRID_RESTART_DIIS = 0

    3    -152.7456239164      5.21E-03  00000
Finding J and K together
 Job number = 22, Threshold = 1.00E-11
Integral type ranges set in mkLRange.C for JobNum: 22  <1-6|1-6>
 MakeJK  time:  CPU       0.16 s  wall       0.17 s
Fock build time:  0.16 s (CPU) 0.17 s (wall)
DIIS Errors:  Max 1.74E-02 RMS 2.60E-03

Current DIIS subspace size = 4
REM_GRID_RESTART_DIIS = 0

    4    -152.7487600194      2.60E-03  00000
Finding J and K together
 Job number = 22, Threshold = 1.00E-11
Integral type ranges set in mkLRange.C for JobNum: 22  <1-6|1-6>
 MakeJK  time:  CPU       0.13 s  wall       0.13 s
Fock build time:  0.13 s (CPU) 0.13 s (wall)
DIIS Errors:  Max 2.67E-03 RMS 3.84E-04

Current DIIS subspace size = 5
REM_GRID_RESTART_DIIS = 0

    5    -152.7495453296      3.84E-04  00000
Finding J and K together
 Job number = 22, Threshold = 1.00E-11
Integral type ranges set in mkLRange.C for JobNum: 22  <1-6|1-6>
 MakeJK  time:  CPU       0.12 s  wall       0.13 s
Fock build time:  0.12 s (CPU) 0.13 s (wall)
DIIS Errors:  Max 4.88E-04 RMS 9.81E-05

Current DIIS subspace size = 6
REM_GRID_RESTART_DIIS = 0

    6    -152.7495635087      9.81E-05  00000
Finding J and K together
 Job number = 22, Threshold = 1.00E-11
Integral type ranges set in mkLRange.C for JobNum: 22  <1-6|1-6>
 MakeJK  time:  CPU       0.17 s  wall       0.17 s
Fock build time:  0.17 s (CPU) 0.17 s (wall)
DIIS Errors:  Max 1.29E-04 RMS 2.34E-05

Current DIIS subspace size = 7
REM_GRID_RESTART_DIIS = 0

    7    -152.7495651710      2.34E-05  00000
Finding J and K together
 Job number = 22, Threshold = 1.00E-11
Integral type ranges set in mkLRange.C for JobNum: 22  <1-6|1-6>
 MakeJK  time:  CPU       0.14 s  wall       0.14 s
Fock build time:  0.14 s (CPU) 0.14 s (wall)
DIIS Errors:  Max 5.65E-05 RMS 9.93E-06

Current DIIS subspace size = 8
REM_GRID_RESTART_DIIS = 0

    8    -152.7495653562      9.93E-06  00000
Finding J and K together
 Job number = 22, Threshold = 1.00E-11
Integral type ranges set in mkLRange.C for JobNum: 22  <1-6|1-6>
 MakeJK  time:  CPU       0.14 s  wall       0.15 s
Fock build time:  0.14 s (CPU) 0.15 s (wall)
DIIS Errors:  Max 1.51E-05 RMS 2.75E-06

Current DIIS subspace size = 9
REM_GRID_RESTART_DIIS = 0

    9    -152.7495653821      2.75E-06  00000
Finding J and K together
 Job number = 22, Threshold = 1.00E-11
Integral type ranges set in mkLRange.C for JobNum: 22  <1-6|1-6>
 MakeJK  time:  CPU       0.14 s  wall       0.14 s
Fock build time:  0.14 s (CPU) 0.14 s (wall)
DIIS Errors:  Max 4.16E-06 RMS 7.82E-07

Current DIIS subspace size = 10
REM_GRID_RESTART_DIIS = 0

   10    -152.7495653840      7.82E-07  00000
Finding J and K together
 Job number = 22, Threshold = 1.00E-11
Integral type ranges set in mkLRange.C for JobNum: 22  <1-6|1-6>
 MakeJK  time:  CPU       0.18 s  wall       0.20 s
Fock build time:  0.18 s (CPU) 0.20 s (wall)
DIIS Errors:  Max 8.08E-07 RMS 1.51E-07

Current DIIS subspace size = 11
REM_GRID_RESTART_DIIS = 0

   11    -152.7495653842      1.51E-07  00000
Finding J and K together
 Job number = 22, Threshold = 1.00E-11
Integral type ranges set in mkLRange.C for JobNum: 22  <1-6|1-6>
 MakeJK  time:  CPU       0.17 s  wall       0.18 s
Fock build time:  0.17 s (CPU) 0.18 s (wall)
DIIS Errors:  Max 1.63E-07 RMS 3.42E-08

Current DIIS subspace size = 12
REM_GRID_RESTART_DIIS = 0

   12    -152.7495653842      3.42E-08  00000
Finding J and K together
 Job number = 22, Threshold = 1.00E-11
Integral type ranges set in mkLRange.C for JobNum: 22  <1-6|1-6>
 MakeJK  time:  CPU       0.15 s  wall       0.15 s
Fock build time:  0.15 s (CPU) 0.15 s (wall)
DIIS Errors:  Max 3.23E-08 RMS 7.14E-09

Current DIIS subspace size = 13
REM_GRID_RESTART_DIIS = 0

   13    -152.7495653842      7.14E-09  00000 Convergence criterion met
 ---------------------------------------
 SCF time:  CPU 1.95 s  wall 1.99 s
 SCF   energy in the final basis set = -152.74956538
 Total energy in the final basis set = -152.74956538
drvman_main.C: 73: calling DrvMan  Calculating analytic gradient of the SCF energy
drvman.C : 218: Calculating analytic gradient of the SCF energy
drvman.C: 244: calling SCF_Grad for normal SCF gradient
 Job number = 111, Threshold = 1.00E-11
Integral type ranges set in mkLRange.C for JobNum: 11  <1-6|7-7>
Finding J and K together
 ML is being used
 Job number = 122, Threshold = 1.00E-11
Integral type ranges set in mkLRange.C for JobNum: 22  <1-6|1-6>
 MakeJK  time:  CPU       0.42 s  wall       0.43 s
 Gradient of SCF Energy
            1           2           3           4           5           6
    1  -0.0170531   0.0165918   0.0440950  -0.0141823   0.0359707   0.0034154
    2  -0.0038865   0.0419273  -0.0084862  -0.0263659  -0.0067416  -0.0548265
    3   0.0572143  -0.2002131  -0.0514459   0.1477025  -0.0211496   0.1281346
            7           8           9          10
    1   0.0979774  -0.1192236  -0.0499357   0.0023444
    2   0.0227492   0.0319880  -0.0061206   0.0097628
    3  -0.0820573  -0.0808309   0.1067743  -0.0041289
 Max gradient component =       2.002E-01
 RMS gradient           =       6.999E-02
drvman.C: 248: out of SCF_Grad for normal SCF gradient
 Gradient time:  CPU 0.43 s  wall 0.44 s
 ------------------------------------------------------------------------------
                     drvman        : Timing summary (seconds)
 ------------------------------------------------------------------------------
     job step          cpu (% of tot)      sys (% of tot)     wall (% of tot)
 ------------------------------------------------------------------------------
 ------------------------------------------------------------------------------
   Grand Totals     0.4280E+00          0.1000E-05          0.4401E+00
 ------------------------------------------------------------------------------
drvman_main.C: 77: out of DrvMan  Time for this dynamics step: 2.4 s (CPU) 2.5 s (wall)

TIME STEP #3 (t = 40.000 a.u. = 0.96755 fs)
--------------------------------------
 Instantaneous Temperature = 1575.7 K
 ----------------------------------------------------------------
             Standard Nuclear Orientation (Angstroms)
    I     Atom           X                Y                Z
 ----------------------------------------------------------------
    1      C       4.6018118935    -0.3751667886    -0.6798397834
    2      C       3.7717246162     0.1666819476    -1.7173287793
    3      H       5.6199752936    -0.7070631852    -1.1408059653
    4      H       4.4105143321    -0.5753897335     0.6373435307
    5      C       3.8268465260     0.3487674886    -3.2630692162
    6      C       4.7058987414     0.2716363152    -4.2271294755
    7      H       4.8088525443     0.5721891568    -5.4638734496
    8      H       5.7575235097     0.3745994300    -4.4008965890
    9      H       2.8000559928     0.3668361941    -0.9660540608
   10      H       2.8404987720     0.6183180466    -3.6200558001
 ----------------------------------------------------------------
 Nuclear Repulsion Energy =    97.5929791629 hartrees
 There are       15 alpha and       15 beta electrons

                       Distance Matrix (Angstroms)
             C (  1)   C (  2)   H (  3)   H (  4)   C (  5)   C (  6)
   C (  2)  1.434931
   H (  3)  1.165891  2.124109
   H (  4)  1.345978  2.550138  2.154518
   C (  5)  2.792441  1.557404  2.972220  4.050673
   C (  6)  3.607278  2.680074  3.364340  4.946494  1.306941
   H (  7)  4.881324  3.908538  4.580755  6.220969  2.420288  1.276897
   H (  8)  3.967881  3.344871  3.437602  5.301017  2.241168  1.070846
   H (  9)  1.969470  1.244434  3.022539  2.460132  2.516129  3.778348
   H ( 10)  3.568488  2.165993  3.953328  4.692050  1.083041  1.992095
             H (  7)   H (  8)   H (  9)
   H (  8)  1.438380
   H (  9)  4.930295  4.532639
   H ( 10)  2.697445  3.029545  2.666197

 Applying Cartesian multipole field
    Component          Value
    ---------          -----
     (2,0,0)        1.00000E-12
     (0,2,0)        2.00000E-10
     (0,0,2)       -3.00000E-12
 Nucleus-field energy     =     0.0000000021 hartrees
 ENuRep (before)= 97.5929791629
 ENucField = 0.0000000021
 ENuRep (after) = 97.5929791650
 Job number = 2, Threshold = 1.00E-11
Integral type ranges set in mkLRange.C for JobNum: 2  <1-6|1-6>
Symmetry turned off temporarily
Symmetry turned back on
 Job number = 11, Threshold = 1.00E-11
Integral type ranges set in mkLRange.C for JobNum: 11  <1-6|7-7>
 Smallest overlap matrix eigenvalue = 1.85E-01
 Multipole matrices computed through 2nd order
 Guess from superposition of atomic densities
 Warning:  Energy on first SCF cycle will be non-variational
 SAD guess density has 30.000000 electrons
 SCF convergence criterion is 10**(-8)
 A restricted Hartree-Fock SCF calculation will be
 performed using Pulay DIIS extrapolation
 SCF converges when DIIS error is below 1.0E-08
Finding J and K together
 Job number = 22, Threshold = 1.00E-11
Integral type ranges set in mkLRange.C for JobNum: 22  <1-6|1-6>
 MakeJK  time:  CPU       0.14 s  wall       0.14 s
Fock build time:  0.14 s (CPU) 0.14 s (wall)
DIIS Errors:  Max 1.15E+00 RMS 1.86E-01

Current DIIS subspace size = 1
REM_GRID_RESTART_DIIS = 0

 ---------------------------------------
  Cycle       Energy         DIIS Error
 ---------------------------------------
    1    -151.9327292039      1.86E-01  00000
Finding J and K together
 Job number = 22, Threshold = 1.00E-11
Integral type ranges set in mkLRange.C for JobNum: 22  <1-6|1-6>
 MakeJK  time:  CPU       0.12 s  wall       0.12 s
Fock build time:  0.12 s (CPU) 0.12 s (wall)
DIIS Errors:  Max 7.11E-02 RMS 1.38E-02

Current DIIS subspace size = 2
REM_GRID_RESTART_DIIS = 0

    2    -152.7596175354      1.38E-02  00000
Finding J and K together
 Job number = 22, Threshold = 1.00E-11
Integral type ranges set in mkLRange.C for JobNum: 22  <1-6|1-6>
 MakeJK  time:  CPU       0.12 s  wall       0.12 s
Fock build time:  0.12 s (CPU) 0.12 s (wall)
DIIS Errors:  Max 2.64E-02 RMS 4.96E-03

Current DIIS subspace size = 3
REM_GRID_RESTART_DIIS = 0

    3    -152.7897859654      4.96E-03  00000
Finding J and K together
 Job number = 22, Threshold = 1.00E-11
Integral type ranges set in mkLRange.C for JobNum: 22  <1-6|1-6>
 MakeJK  time:  CPU       0.13 s  wall       0.13 s
Fock build time:  0.13 s (CPU) 0.13 s (wall)
DIIS Errors:  Max 1.68E-02 RMS 2.59E-03

Current DIIS subspace size = 4
REM_GRID_RESTART_DIIS = 0

    4    -152.7926550803      2.59E-03  00000
Finding J and K together
 Job number = 22, Threshold = 1.00E-11
Integral type ranges set in mkLRange.C for JobNum: 22  <1-6|1-6>
 MakeJK  time:  CPU       0.16 s  wall       0.16 s
Fock build time:  0.16 s (CPU) 0.16 s (wall)
DIIS Errors:  Max 2.15E-03 RMS 3.26E-04

Current DIIS subspace size = 5
REM_GRID_RESTART_DIIS = 0

    5    -152.7934049197      3.26E-04  00000
Finding J and K together
 Job number = 22, Threshold = 1.00E-11
Integral type ranges set in mkLRange.C for JobNum: 22  <1-6|1-6>
 MakeJK  time:  CPU       0.13 s  wall       0.14 s
Fock build time:  0.13 s (CPU) 0.14 s (wall)
DIIS Errors:  Max 4.05E-04 RMS 8.46E-05

Current DIIS subspace size = 6
REM_GRID_RESTART_DIIS = 0

    6    -152.7934179125      8.46E-05  00000
Finding J and K together
 Job number = 22, Threshold = 1.00E-11
Integral type ranges set in mkLRange.C for JobNum: 22  <1-6|1-6>
 MakeJK  time:  CPU       0.13 s  wall       0.13 s
Fock build time:  0.13 s (CPU) 0.13 s (wall)
DIIS Errors:  Max 1.19E-04 RMS 2.04E-05

Current DIIS subspace size = 7
REM_GRID_RESTART_DIIS = 0

    7    -152.7934191354      2.04E-05  00000
Finding J and K together
 Job number = 22, Threshold = 1.00E-11
Integral type ranges set in mkLRange.C for JobNum: 22  <1-6|1-6>
 MakeJK  time:  CPU       0.14 s  wall       0.14 s
Fock build time:  0.14 s (CPU) 0.14 s (wall)
DIIS Errors:  Max 4.39E-05 RMS 7.77E-06

Current DIIS subspace size = 8
REM_GRID_RESTART_DIIS = 0

    8    -152.7934192724      7.77E-06  00000
Finding J and K together
 Job number = 22, Threshold = 1.00E-11
Integral type ranges set in mkLRange.C for JobNum: 22  <1-6|1-6>
 MakeJK  time:  CPU       0.14 s  wall       0.14 s
Fock build time:  0.14 s (CPU) 0.14 s (wall)
DIIS Errors:  Max 1.37E-05 RMS 2.50E-06

Current DIIS subspace size = 9
REM_GRID_RESTART_DIIS = 0

    9    -152.7934192874      2.50E-06  00000
Finding J and K together
 Job number = 22, Threshold = 1.00E-11
Integral type ranges set in mkLRange.C for JobNum: 22  <1-6|1-6>
 MakeJK  time:  CPU       0.13 s  wall       0.13 s
Fock build time:  0.13 s (CPU) 0.13 s (wall)
DIIS Errors:  Max 3.97E-06 RMS 7.24E-07

Current DIIS subspace size = 10
REM_GRID_RESTART_DIIS = 0

   10    -152.7934192891      7.24E-07  00000
Finding J and K together
 Job number = 22, Threshold = 1.00E-11
Integral type ranges set in mkLRange.C for JobNum: 22  <1-6|1-6>
 MakeJK  time:  CPU       0.12 s  wall       0.12 s
Fock build time:  0.12 s (CPU) 0.12 s (wall)
DIIS Errors:  Max 7.17E-07 RMS 1.37E-07

Current DIIS subspace size = 11
REM_GRID_RESTART_DIIS = 0

   11    -152.7934192892      1.37E-07  00000
Finding J and K together
 Job number = 22, Threshold = 1.00E-11
Integral type ranges set in mkLRange.C for JobNum: 22  <1-6|1-6>
 MakeJK  time:  CPU       0.12 s  wall       0.12 s
Fock build time:  0.12 s (CPU) 0.12 s (wall)
DIIS Errors:  Max 1.58E-07 RMS 3.18E-08

Current DIIS subspace size = 12
REM_GRID_RESTART_DIIS = 0

   12    -152.7934192892      3.18E-08  00000
Finding J and K together
 Job number = 22, Threshold = 1.00E-11
Integral type ranges set in mkLRange.C for JobNum: 22  <1-6|1-6>
 MakeJK  time:  CPU       0.12 s  wall       0.12 s
Fock build time:  0.12 s (CPU) 0.12 s (wall)
DIIS Errors:  Max 3.03E-08 RMS 6.37E-09

Current DIIS subspace size = 13
REM_GRID_RESTART_DIIS = 0

   13    -152.7934192892      6.37E-09  00000 Convergence criterion met
 ---------------------------------------
 SCF time:  CPU 1.73 s  wall 1.74 s
 SCF   energy in the final basis set = -152.79341929
 Total energy in the final basis set = -152.79341929
drvman_main.C: 73: calling DrvMan  Calculating analytic gradient of the SCF energy
drvman.C : 218: Calculating analytic gradient of the SCF energy
drvman.C: 244: calling SCF_Grad for normal SCF gradient
 Job number = 111, Threshold = 1.00E-11
Integral type ranges set in mkLRange.C for JobNum: 11  <1-6|7-7>
Finding J and K together
 ML is being used
 Job number = 122, Threshold = 1.00E-11
Integral type ranges set in mkLRange.C for JobNum: 22  <1-6|1-6>
 MakeJK  time:  CPU       0.38 s  wall       0.39 s
 Gradient of SCF Energy
            1           2           3           4           5           6
    1  -0.0144387   0.0106162   0.0385100  -0.0098312   0.0305774  -0.0775859
    2  -0.0048132   0.0396193  -0.0074320  -0.0258032  -0.0018445  -0.0596072
    3   0.0624902  -0.1890245  -0.0466000   0.1363863  -0.0301003   0.1392445
            7           8           9          10
    1   0.0918411  -0.0361758  -0.0440028   0.0104897
    2   0.0234502   0.0356208  -0.0060248   0.0068345
    3  -0.0847520  -0.0844453   0.0999539  -0.0031529
 Max gradient component =       1.890E-01
 RMS gradient           =       6.669E-02
drvman.C: 248: out of SCF_Grad for normal SCF gradient
 Gradient time:  CPU 0.40 s  wall 0.41 s
 ------------------------------------------------------------------------------
                     drvman        : Timing summary (seconds)
 ------------------------------------------------------------------------------
     job step          cpu (% of tot)      sys (% of tot)     wall (% of tot)
 ------------------------------------------------------------------------------
 ------------------------------------------------------------------------------
   Grand Totals     0.4040E+00          0.2000E-05          0.4096E+00
 ------------------------------------------------------------------------------
drvman_main.C: 77: out of DrvMan  Time for this dynamics step: 2.2 s (CPU) 2.2 s (wall)

TIME STEP #4 (t = 60.000 a.u. = 1.45133 fs)
--------------------------------------
 Instantaneous Temperature = 2493.4 K
 ----------------------------------------------------------------
             Standard Nuclear Orientation (Angstroms)
    I     Atom           X                Y                Z
 ----------------------------------------------------------------
    1      C       4.6040143890    -0.3718266182    -0.6790200040
    2      C       3.7705401604     0.1639560653    -1.7111856720
    3      H       5.6075122789    -0.7026951833    -1.1217691157
    4      H       4.4315283415    -0.5643911040     0.5651211693
    5      C       3.8248418971     0.3514106262    -3.2633002738
    6      C       4.7006328969     0.2694105418    -4.2296956915
    7      H       4.7762613955     0.5590545676    -5.4438373024
    8      H       5.8319487901     0.3671911726    -4.3754474169
    9      H       2.8178595988     0.3730943951    -1.0004947343
   10      H       2.8467563307     0.6049524130    -3.6275139304
 ----------------------------------------------------------------
 Nuclear Repulsion Energy =    97.7962762701 hartrees
 There are       15 alpha and       15 beta electrons

                       Distance Matrix (Angstroms)
             C (  1)   C (  2)   H (  3)   H (  4)   C (  5)   C (  6)
   C (  2)  1.430772
   H (  3)  1.145648  2.114938
   H (  4)  1.270716  2.479711  2.060986
   C (  5)  2.794403  1.564336  2.979129  3.982910
   C (  6)  3.609407  2.686836  3.380329  4.874209  1.306772
   H (  7)  4.857951  3.885906  4.578566  6.122790  2.388107  1.250501
   H (  8)  3.964536  3.374759  3.432412  5.219027  2.294689  1.144849
   H (  9)  1.961785  1.206823  2.992356  2.435972  2.476847  3.739428
   H ( 10)  3.568707  2.172595  3.951009  4.632176  1.074051  1.977895
             H (  7)   H (  8)   H (  9)
   H (  8)  1.514181
   H (  9)  4.859343  4.524939
   H ( 10)  2.650307  3.086634  2.637389

 Applying Cartesian multipole field
    Component          Value
    ---------          -----
     (2,0,0)        1.00000E-12
     (0,2,0)        2.00000E-10
     (0,0,2)       -3.00000E-12
 Nucleus-field energy     =     0.0000000021 hartrees
 ENuRep (before)= 97.7962762701
 ENucField = 0.0000000021
 ENuRep (after) = 97.7962762721
 Job number = 2, Threshold = 1.00E-11
Integral type ranges set in mkLRange.C for JobNum: 2  <1-6|1-6>
Symmetry turned off temporarily
Symmetry turned back on
 Job number = 11, Threshold = 1.00E-11
Integral type ranges set in mkLRange.C for JobNum: 11  <1-6|7-7>
 Smallest overlap matrix eigenvalue = 1.85E-01
 Multipole matrices computed through 2nd order
 Guess from superposition of atomic densities
 Warning:  Energy on first SCF cycle will be non-variational
 SAD guess density has 30.000000 electrons
 SCF convergence criterion is 10**(-8)
 A restricted Hartree-Fock SCF calculation will be
 performed using Pulay DIIS extrapolation
 SCF converges when DIIS error is below 1.0E-08
Finding J and K together
 Job number = 22, Threshold = 1.00E-11
Integral type ranges set in mkLRange.C for JobNum: 22  <1-6|1-6>
 MakeJK  time:  CPU       0.13 s  wall       0.13 s
Fock build time:  0.13 s (CPU) 0.13 s (wall)
DIIS Errors:  Max 1.16E+00 RMS 1.87E-01

Current DIIS subspace size = 1
REM_GRID_RESTART_DIIS = 0

 ---------------------------------------
  Cycle       Energy         DIIS Error
 ---------------------------------------
    1    -151.9694145652      1.87E-01  00000
Finding J and K together
 Job number = 22, Threshold = 1.00E-11
Integral type ranges set in mkLRange.C for JobNum: 22  <1-6|1-6>
 MakeJK  time:  CPU       0.14 s  wall       0.14 s
Fock build time:  0.14 s (CPU) 0.14 s (wall)
DIIS Errors:  Max 7.10E-02 RMS 1.37E-02

Current DIIS subspace size = 2
REM_GRID_RESTART_DIIS = 0

    2    -152.8043020899      1.37E-02  00000
Finding J and K together
 Job number = 22, Threshold = 1.00E-11
Integral type ranges set in mkLRange.C for JobNum: 22  <1-6|1-6>
 MakeJK  time:  CPU       0.14 s  wall       0.16 s
Fock build time:  0.14 s (CPU) 0.16 s (wall)
DIIS Errors:  Max 2.45E-02 RMS 4.74E-03

Current DIIS subspace size = 3
REM_GRID_RESTART_DIIS = 0

    3    -152.8337531062      4.74E-03  00000
Finding J and K together
 Job number = 22, Threshold = 1.00E-11
Integral type ranges set in mkLRange.C for JobNum: 22  <1-6|1-6>
 MakeJK  time:  CPU       0.16 s  wall       0.24 s
Fock build time:  0.16 s (CPU) 0.24 s (wall)
DIIS Errors:  Max 1.58E-02 RMS 2.54E-03

Current DIIS subspace size = 4
REM_GRID_RESTART_DIIS = 0

    4    -152.8363897006      2.54E-03  00000
Finding J and K together
 Job number = 22, Threshold = 1.00E-11
Integral type ranges set in mkLRange.C for JobNum: 22  <1-6|1-6>
 MakeJK  time:  CPU       0.16 s  wall       0.16 s
Fock build time:  0.16 s (CPU) 0.17 s (wall)
DIIS Errors:  Max 1.62E-03 RMS 2.68E-04

Current DIIS subspace size = 5
REM_GRID_RESTART_DIIS = 0

    5    -152.8370924183      2.68E-04  00000
Finding J and K together
 Job number = 22, Threshold = 1.00E-11
Integral type ranges set in mkLRange.C for JobNum: 22  <1-6|1-6>
 MakeJK  time:  CPU       0.16 s  wall       0.17 s
Fock build time:  0.16 s (CPU) 0.17 s (wall)
DIIS Errors:  Max 3.53E-04 RMS 6.84E-05

Current DIIS subspace size = 6
REM_GRID_RESTART_DIIS = 0

    6    -152.8371013119      6.84E-05  00000
Finding J and K together
 Job number = 22, Threshold = 1.00E-11
Integral type ranges set in mkLRange.C for JobNum: 22  <1-6|1-6>
 MakeJK  time:  CPU       0.19 s  wall       0.19 s
Fock build time:  0.19 s (CPU) 0.20 s (wall)
DIIS Errors:  Max 1.13E-04 RMS 1.85E-05

Current DIIS subspace size = 7
REM_GRID_RESTART_DIIS = 0

    7    -152.8371021534      1.85E-05  00000
Finding J and K together
 Job number = 22, Threshold = 1.00E-11
Integral type ranges set in mkLRange.C for JobNum: 22  <1-6|1-6>
 MakeJK  time:  CPU       0.20 s  wall       0.21 s
Fock build time:  0.20 s (CPU) 0.21 s (wall)
DIIS Errors:  Max 2.88E-05 RMS 5.55E-06

Current DIIS subspace size = 8
REM_GRID_RESTART_DIIS = 0

    8    -152.8371022495      5.55E-06  00000
Finding J and K together
 Job number = 22, Threshold = 1.00E-11
Integral type ranges set in mkLRange.C for JobNum: 22  <1-6|1-6>
 MakeJK  time:  CPU       0.19 s  wall       0.21 s
Fock build time:  0.19 s (CPU) 0.21 s (wall)
DIIS Errors:  Max 9.91E-06 RMS 1.89E-06

Current DIIS subspace size = 9
REM_GRID_RESTART_DIIS = 0

    9    -152.8371022571      1.89E-06  00000
Finding J and K together
 Job number = 22, Threshold = 1.00E-11
Integral type ranges set in mkLRange.C for JobNum: 22  <1-6|1-6>
 MakeJK  time:  CPU       0.19 s  wall       0.19 s
Fock build time:  0.19 s (CPU) 0.20 s (wall)
DIIS Errors:  Max 2.87E-06 RMS 5.42E-07

Current DIIS subspace size = 10
REM_GRID_RESTART_DIIS = 0

   10    -152.8371022581      5.42E-07  00000
Finding J and K together
 Job number = 22, Threshold = 1.00E-11
Integral type ranges set in mkLRange.C for JobNum: 22  <1-6|1-6>
 MakeJK  time:  CPU       0.19 s  wall       0.20 s
Fock build time:  0.19 s (CPU) 0.20 s (wall)
DIIS Errors:  Max 5.56E-07 RMS 1.10E-07

Current DIIS subspace size = 11
REM_GRID_RESTART_DIIS = 0

   11    -152.8371022581      1.10E-07  00000
Finding J and K together
 Job number = 22, Threshold = 1.00E-11
Integral type ranges set in mkLRange.C for JobNum: 22  <1-6|1-6>
 MakeJK  time:  CPU       0.19 s  wall       0.20 s
Fock build time:  0.19 s (CPU) 0.20 s (wall)
DIIS Errors:  Max 1.35E-07 RMS 2.82E-08

Current DIIS subspace size = 12
REM_GRID_RESTART_DIIS = 0

   12    -152.8371022581      2.82E-08  00000
Finding J and K together
 Job number = 22, Threshold = 1.00E-11
Integral type ranges set in mkLRange.C for JobNum: 22  <1-6|1-6>
 MakeJK  time:  CPU       0.19 s  wall       0.22 s
Fock build time:  0.19 s (CPU) 0.22 s (wall)
DIIS Errors:  Max 2.90E-08 RMS 5.48E-09

Current DIIS subspace size = 13
REM_GRID_RESTART_DIIS = 0

   13    -152.8371022581      5.48E-09  00000 Convergence criterion met
 ---------------------------------------
 SCF time:  CPU 2.24 s  wall 2.47 s
 SCF   energy in the final basis set = -152.83710226
 Total energy in the final basis set = -152.83710226
drvman_main.C: 73: calling DrvMan  Calculating analytic gradient of the SCF energy
drvman.C : 218: Calculating analytic gradient of the SCF energy
drvman.C: 244: calling SCF_Grad for normal SCF gradient
 Job number = 111, Threshold = 1.00E-11
Integral type ranges set in mkLRange.C for JobNum: 11  <1-6|7-7>
Finding J and K together
 ML is being used
 Job number = 122, Threshold = 1.00E-11
Integral type ranges set in mkLRange.C for JobNum: 22  <1-6|1-6>
 MakeJK  time:  CPU       0.45 s  wall       0.46 s
 Gradient of SCF Energy
            1           2           3           4           5           6
    1  -0.0094631   0.0001038   0.0291689  -0.0036819   0.0227192  -0.1320850
    2  -0.0080073   0.0376967  -0.0053196  -0.0238603   0.0033417  -0.0598632
    3   0.0737036  -0.1707921  -0.0391135   0.1149529  -0.0376686   0.1347649
            7           8           9          10
    1   0.0823570   0.0262130  -0.0335603   0.0182284
    2   0.0230247   0.0356848  -0.0066959   0.0039983
    3  -0.0835028  -0.0786703   0.0883909  -0.0020650
 Max gradient component =       1.708E-01
 RMS gradient           =       6.463E-02
drvman.C: 248: out of SCF_Grad for normal SCF gradient
 Gradient time:  CPU 0.47 s  wall 0.49 s
 ------------------------------------------------------------------------------
                     drvman        : Timing summary (seconds)
 ------------------------------------------------------------------------------
     job step          cpu (% of tot)      sys (% of tot)     wall (% of tot)
 ------------------------------------------------------------------------------
 ------------------------------------------------------------------------------
   Grand Totals     0.4680E+00          0.3000E-05          0.4856E+00
 ------------------------------------------------------------------------------
drvman_main.C: 77: out of DrvMan  Time for this dynamics step: 2.7 s (CPU) 3.0 s (wall)

TIME STEP #5 (t = 80.000 a.u. = 1.93511 fs)
--------------------------------------
 Instantaneous Temperature = 3407.2 K
 ----------------------------------------------------------------
             Standard Nuclear Orientation (Angstroms)
    I     Atom           X                Y                Z
 ----------------------------------------------------------------
    1      C       4.6063084541    -0.3684089651    -0.6789134204
    2      C       3.7693547003     0.1608654095    -1.7033898889
    3      H       5.5916885317    -0.6977142779    -1.0982257548
    4      H       4.4529665682    -0.5506433836     0.4796543650
    5      C       3.8226174253     0.3540214281    -3.2631668302
    6      C       4.6966451776     0.2677640362    -4.2335659646
    7      H       4.7341813789     0.5432671623    -5.4141802705
    8      H       5.9033539062     0.3556714434    -4.3409341464
    9      H       2.8395298996     0.3801240678    -1.0451194770
   10      H       2.8509136769     0.5911261151    -3.6347341392
 ----------------------------------------------------------------
 Nuclear Repulsion Energy =    98.1630745999 hartrees
 There are       15 alpha and       15 beta electrons

                       Distance Matrix (Angstroms)
             C (  1)   C (  2)   H (  3)   H (  4)   C (  5)   C (  6)
   C (  2)  1.424842
   H (  3)  1.120374  2.103398
   H (  4)  1.182794  2.395674  1.951416
   C (  5)  2.795433  1.572593  2.987094  3.901855
   C (  6)  3.612261  2.696866  3.400531  4.789949  1.308831
   H (  7)  4.823925  3.853192  4.571960  6.001084  2.343848  1.212914
   H (  8)  3.951837  3.398315  3.423728  5.114988  2.343299  1.214661
   H (  9)  1.953437  1.160159  2.956169  2.407165  2.426289  3.691571
   H ( 10)  3.569173  2.181456  3.950548  4.560527  1.067000  1.967203
             H (  7)   H (  8)   H (  9)
   H (  8)  1.598128
   H (  9)  4.764978  4.500001
   H ( 10)  2.591412  3.141902  2.598222

 Applying Cartesian multipole field
    Component          Value
    ---------          -----
     (2,0,0)        1.00000E-12
     (0,2,0)        2.00000E-10
     (0,0,2)       -3.00000E-12
 Nucleus-field energy     =     0.0000000020 hartrees
 ENuRep (before)= 98.1630745999
 ENucField = 0.0000000020
 ENuRep (after) = 98.1630746019
 Job number = 2, Threshold = 1.00E-11
Integral type ranges set in mkLRange.C for JobNum: 2  <1-6|1-6>
Symmetry turned off temporarily
Symmetry turned back on
 Job number = 11, Threshold = 1.00E-11
Integral type ranges set in mkLRange.C for JobNum: 11  <1-6|7-7>
 Smallest overlap matrix eigenvalue = 1.85E-01
 Multipole matrices computed through 2nd order
 Guess from superposition of atomic densities
 Warning:  Energy on first SCF cycle will be non-variational
 SAD guess density has 30.000000 electrons
 SCF convergence criterion is 10**(-8)
 A restricted Hartree-Fock SCF calculation will be
 performed using Pulay DIIS extrapolation
 SCF converges when DIIS error is below 1.0E-08
Finding J and K together
 Job number = 22, Threshold = 1.00E-11
Integral type ranges set in mkLRange.C for JobNum: 22  <1-6|1-6>
 MakeJK  time:  CPU       0.13 s  wall       0.13 s
Fock build time:  0.13 s (CPU) 0.13 s (wall)
DIIS Errors:  Max 1.15E+00 RMS 1.89E-01

Current DIIS subspace size = 1
REM_GRID_RESTART_DIIS = 0

 ---------------------------------------
  Cycle       Energy         DIIS Error
 ---------------------------------------
    1    -152.0474281477      1.89E-01  00000
Finding J and K together
 Job number = 22, Threshold = 1.00E-11
Integral type ranges set in mkLRange.C for JobNum: 22  <1-6|1-6>
 MakeJK  time:  CPU       0.15 s  wall       0.15 s
Fock build time:  0.15 s (CPU) 0.15 s (wall)
DIIS Errors:  Max 7.07E-02 RMS 1.36E-02

Current DIIS subspace size = 2
REM_GRID_RESTART_DIIS = 0

    2    -152.8435974936      1.36E-02  00000
Finding J and K together
 Job number = 22, Threshold = 1.00E-11
Integral type ranges set in mkLRange.C for JobNum: 22  <1-6|1-6>
 MakeJK  time:  CPU       0.18 s  wall       0.18 s
Fock build time:  0.18 s (CPU) 0.19 s (wall)
DIIS Errors:  Max 2.32E-02 RMS 4.58E-03

Current DIIS subspace size = 3
REM_GRID_RESTART_DIIS = 0

    3    -152.8724938095      4.58E-03  00000
Finding J and K together
 Job number = 22, Threshold = 1.00E-11
Integral type ranges set in mkLRange.C for JobNum: 22  <1-6|1-6>
 MakeJK  time:  CPU       0.12 s  wall       0.12 s
Fock build time:  0.12 s (CPU) 0.12 s (wall)
DIIS Errors:  Max 1.44E-02 RMS 2.46E-03

Current DIIS subspace size = 4
REM_GRID_RESTART_DIIS = 0

    4    -152.8749537704      2.46E-03  00000
Finding J and K together
 Job number = 22, Threshold = 1.00E-11
Integral type ranges set in mkLRange.C for JobNum: 22  <1-6|1-6>
 MakeJK  time:  CPU       0.14 s  wall       0.15 s
Fock build time:  0.14 s (CPU) 0.15 s (wall)
DIIS Errors:  Max 1.13E-03 RMS 2.21E-04

Current DIIS subspace size = 5
REM_GRID_RESTART_DIIS = 0

    5    -152.8756071041      2.21E-04  00000
Finding J and K together
 Job number = 22, Threshold = 1.00E-11
Integral type ranges set in mkLRange.C for JobNum: 22  <1-6|1-6>
 MakeJK  time:  CPU       0.14 s  wall       0.14 s
Fock build time:  0.14 s (CPU) 0.14 s (wall)
DIIS Errors:  Max 3.28E-04 RMS 5.08E-05

Current DIIS subspace size = 6
REM_GRID_RESTART_DIIS = 0

    6    -152.8756134553      5.08E-05  00000
Finding J and K together
 Job number = 22, Threshold = 1.00E-11
Integral type ranges set in mkLRange.C for JobNum: 22  <1-6|1-6>
 MakeJK  time:  CPU       0.14 s  wall       0.15 s
Fock build time:  0.14 s (CPU) 0.15 s (wall)
DIIS Errors:  Max 9.60E-05 RMS 1.76E-05

Current DIIS subspace size = 7
REM_GRID_RESTART_DIIS = 0

    7    -152.8756140178      1.76E-05  00000
Finding J and K together
 Job number = 22, Threshold = 1.00E-11
Integral type ranges set in mkLRange.C for JobNum: 22  <1-6|1-6>
 MakeJK  time:  CPU       0.14 s  wall       0.14 s
Fock build time:  0.14 s (CPU) 0.14 s (wall)
DIIS Errors:  Max 2.37E-05 RMS 3.93E-06

Current DIIS subspace size = 8
REM_GRID_RESTART_DIIS = 0

    8    -152.8756140815      3.93E-06  00000
Finding J and K together
 Job number = 22, Threshold = 1.00E-11
Integral type ranges set in mkLRange.C for JobNum: 22  <1-6|1-6>
 MakeJK  time:  CPU       0.16 s  wall       0.16 s
Fock build time:  0.16 s (CPU) 0.16 s (wall)
DIIS Errors:  Max 7.42E-06 RMS 1.26E-06

Current DIIS subspace size = 9
REM_GRID_RESTART_DIIS = 0

    9    -152.8756140860      1.26E-06  00000
Finding J and K together
 Job number = 22, Threshold = 1.00E-11
Integral type ranges set in mkLRange.C for JobNum: 22  <1-6|1-6>
 MakeJK  time:  CPU       0.17 s  wall       0.18 s
Fock build time:  0.18 s (CPU) 0.18 s (wall)
DIIS Errors:  Max 1.73E-06 RMS 3.18E-07

Current DIIS subspace size = 10
REM_GRID_RESTART_DIIS = 0

   10    -152.8756140864      3.18E-07  00000
Finding J and K together
 Job number = 22, Threshold = 1.00E-11
Integral type ranges set in mkLRange.C for JobNum: 22  <1-6|1-6>
 MakeJK  time:  CPU       0.18 s  wall       0.18 s
Fock build time:  0.18 s (CPU) 0.18 s (wall)
DIIS Errors:  Max 4.25E-07 RMS 6.00E-08

Current DIIS subspace size = 11
REM_GRID_RESTART_DIIS = 0

   11    -152.8756140865      6.00E-08  00000
Finding J and K together
 Job number = 22, Threshold = 1.00E-11
Integral type ranges set in mkLRange.C for JobNum: 22  <1-6|1-6>
 MakeJK  time:  CPU       0.16 s  wall       0.16 s
Fock build time:  0.16 s (CPU) 0.16 s (wall)
DIIS Errors:  Max 1.50E-07 RMS 1.83E-08

Current DIIS subspace size = 12
REM_GRID_RESTART_DIIS = 0

   12    -152.8756140865      1.83E-08  00000
Finding J and K together
 Job number = 22, Threshold = 1.00E-11
Integral type ranges set in mkLRange.C for JobNum: 22  <1-6|1-6>
 MakeJK  time:  CPU       0.15 s  wall       0.15 s
Fock build time:  0.15 s (CPU) 0.15 s (wall)
DIIS Errors:  Max 3.29E-08 RMS 4.56E-09

Current DIIS subspace size = 13
REM_GRID_RESTART_DIIS = 0

   13    -152.8756140865      4.56E-09  00000 Convergence criterion met
 ---------------------------------------
 SCF time:  CPU 2.02 s  wall 2.03 s
 SCF   energy in the final basis set = -152.87561409
 Total energy in the final basis set = -152.87561409
drvman_main.C: 73: calling DrvMan  Calculating analytic gradient of the SCF energy
drvman.C : 218: Calculating analytic gradient of the SCF energy
drvman.C: 244: calling SCF_Grad for normal SCF gradient
 Job number = 111, Threshold = 1.00E-11
Integral type ranges set in mkLRange.C for JobNum: 11  <1-6|7-7>
Finding J and K together
 ML is being used
 Job number = 122, Threshold = 1.00E-11
Integral type ranges set in mkLRange.C for JobNum: 22  <1-6|1-6>
 MakeJK  time:  CPU       0.40 s  wall       0.41 s
 Gradient of SCF Energy
            1           2           3           4           5           6
    1  -0.0025253  -0.0170707   0.0157367   0.0051920   0.0130514  -0.1625192
    2  -0.0148304   0.0368115  -0.0019992  -0.0193667   0.0085555  -0.0557935
    3   0.0980357  -0.1445053  -0.0288807   0.0759525  -0.0423789   0.1137112
            7           8           9          10
    1   0.0700652   0.0701462  -0.0166621   0.0245857
    2   0.0208025   0.0330169  -0.0087342   0.0015375
    3  -0.0751979  -0.0663465   0.0709104  -0.0013004
 Max gradient component =       1.625E-01
 RMS gradient           =       6.097E-02
drvman.C: 248: out of SCF_Grad for normal SCF gradient
 Gradient time:  CPU 0.42 s  wall 0.43 s
 ------------------------------------------------------------------------------
                     drvman        : Timing summary (seconds)
 ------------------------------------------------------------------------------
     job step          cpu (% of tot)      sys (% of tot)     wall (% of tot)
 ------------------------------------------------------------------------------
 ------------------------------------------------------------------------------
   Grand Totals     0.4240E+00          0.1000E-05          0.4270E+00
 ------------------------------------------------------------------------------
drvman_main.C: 77: out of DrvMan  Time for this dynamics step: 2.5 s (CPU) 2.5 s (wall)

TIME STEP #6 (t = 100.000 a.u. = 2.41888 fs)
--------------------------------------
 Instantaneous Temperature = 4206.0 K
 ----------------------------------------------------------------
             Standard Nuclear Orientation (Angstroms)
    I     Atom           X                Y                Z
 ----------------------------------------------------------------
    1      C       4.6086269552    -0.3648478057    -0.6797554827
    2      C       3.7683344251     0.1574185457    -1.6941957951
    3      H       5.5740516626    -0.6925030367    -1.0713548671
    4      H       4.4738065904    -0.5346643048     0.3854365983
    5      C       3.8202666611     0.3565494420    -3.2626233059
    6      C       4.6942300809     0.2666574182    -4.2385365681
    7      H       4.6840287126     0.5250829756    -5.3758592155
    8      H       5.9666770415     0.3403476352    -4.2987766765
    9      H       2.8631199395     0.3881600589    -1.0979142470
   10      H       2.8522383458     0.5771226721    -3.6418045200
 ----------------------------------------------------------------
 Nuclear Repulsion Energy =    98.6918109482 hartrees
 There are       15 alpha and       15 beta electrons

                       Distance Matrix (Angstroms)
             C (  1)   C (  2)   H (  3)   H (  4)   C (  5)   C (  6)
   C (  2)  1.417019
   H (  3)  1.092132  2.090673
   H (  4)  1.087036  2.302507  1.832401
   C (  5)  2.795198  1.581871  2.996319  3.811787
   C (  6)  3.615391  2.709776  3.424195  4.698067  1.313126
   H (  7)  4.780277  3.811603  4.561076  5.861722  2.289160  1.166358
   H (  8)  3.929238  3.413212  3.411332  4.993612  2.383475  1.276002
   H (  9)  1.946451  1.108245  2.918508  2.376183  2.367086  3.637477
   H ( 10)  3.570146  2.192844  3.953154  4.481543  1.062784  1.960972
             H (  7)   H (  8)   H (  9)
   H (  8)  1.685058
   H (  9)  4.651373  4.458685
   H ( 10)  2.522917  3.191771  2.550922

 Applying Cartesian multipole field
    Component          Value
    ---------          -----
     (2,0,0)        1.00000E-12
     (0,2,0)        2.00000E-10
     (0,0,2)       -3.00000E-12
 Nucleus-field energy     =     0.0000000020 hartrees
 ENuRep (before)= 98.6918109482
 ENucField = 0.0000000020
 ENuRep (after) = 98.6918109502
 Job number = 2, Threshold = 1.00E-11
Integral type ranges set in mkLRange.C for JobNum: 2  <1-6|1-6>
Symmetry turned off temporarily
Symmetry turned back on
 Job number = 11, Threshold = 1.00E-11
Integral type ranges set in mkLRange.C for JobNum: 11  <1-6|7-7>
 Smallest overlap matrix eigenvalue = 1.86E-01
 Multipole matrices computed through 2nd order
 Guess from superposition of atomic densities
 Warning:  Energy on first SCF cycle will be non-variational
 SAD guess density has 30.000000 electrons
 SCF convergence criterion is 10**(-8)
 A restricted Hartree-Fock SCF calculation will be
 performed using Pulay DIIS extrapolation
 SCF converges when DIIS error is below 1.0E-08
Finding J and K together
 Job number = 22, Threshold = 1.00E-11
Integral type ranges set in mkLRange.C for JobNum: 22  <1-6|1-6>
 MakeJK  time:  CPU       0.13 s  wall       0.13 s
Fock build time:  0.13 s (CPU) 0.13 s (wall)
DIIS Errors:  Max 1.14E+00 RMS 1.94E-01

Current DIIS subspace size = 1
REM_GRID_RESTART_DIIS = 0

 ---------------------------------------
  Cycle       Energy         DIIS Error
 ---------------------------------------
    1    -152.1668639155      1.94E-01  00000
Finding J and K together
 Job number = 22, Threshold = 1.00E-11
Integral type ranges set in mkLRange.C for JobNum: 22  <1-6|1-6>
 MakeJK  time:  CPU       0.16 s  wall       0.16 s
Fock build time:  0.16 s (CPU) 0.16 s (wall)
DIIS Errors:  Max 6.99E-02 RMS 1.37E-02

Current DIIS subspace size = 2
REM_GRID_RESTART_DIIS = 0

    2    -152.8691564950      1.37E-02  00000
Finding J and K together
 Job number = 22, Threshold = 1.00E-11
Integral type ranges set in mkLRange.C for JobNum: 22  <1-6|1-6>
 MakeJK  time:  CPU       0.16 s  wall       0.16 s
Fock build time:  0.16 s (CPU) 0.16 s (wall)
DIIS Errors:  Max 2.20E-02 RMS 4.50E-03

Current DIIS subspace size = 3
REM_GRID_RESTART_DIIS = 0

    3    -152.8977247274      4.50E-03  00000
Finding J and K together
 Job number = 22, Threshold = 1.00E-11
Integral type ranges set in mkLRange.C for JobNum: 22  <1-6|1-6>
 MakeJK  time:  CPU       0.13 s  wall       0.13 s
Fock build time:  0.13 s (CPU) 0.13 s (wall)
DIIS Errors:  Max 1.41E-02 RMS 2.38E-03

Current DIIS subspace size = 4
REM_GRID_RESTART_DIIS = 0

    4    -152.9000774345      2.38E-03  00000
Finding J and K together
 Job number = 22, Threshold = 1.00E-11
Integral type ranges set in mkLRange.C for JobNum: 22  <1-6|1-6>
 MakeJK  time:  CPU       0.13 s  wall       0.13 s
Fock build time:  0.13 s (CPU) 0.13 s (wall)
DIIS Errors:  Max 9.64E-04 RMS 1.92E-04

Current DIIS subspace size = 5
REM_GRID_RESTART_DIIS = 0

    5    -152.9006895577      1.92E-04  00000
Finding J and K together
 Job number = 22, Threshold = 1.00E-11
Integral type ranges set in mkLRange.C for JobNum: 22  <1-6|1-6>
 MakeJK  time:  CPU       0.18 s  wall       0.18 s
Fock build time:  0.18 s (CPU) 0.18 s (wall)
DIIS Errors:  Max 3.07E-04 RMS 3.77E-05

Current DIIS subspace size = 6
REM_GRID_RESTART_DIIS = 0

    6    -152.9006947215      3.77E-05  00000
Finding J and K together
 Job number = 22, Threshold = 1.00E-11
Integral type ranges set in mkLRange.C for JobNum: 22  <1-6|1-6>
 MakeJK  time:  CPU       0.18 s  wall       0.18 s
Fock build time:  0.18 s (CPU) 0.18 s (wall)
DIIS Errors:  Max 6.59E-05 RMS 1.32E-05

Current DIIS subspace size = 7
REM_GRID_RESTART_DIIS = 0

    7    -152.9006951548      1.32E-05  00000
Finding J and K together
 Job number = 22, Threshold = 1.00E-11
Integral type ranges set in mkLRange.C for JobNum: 22  <1-6|1-6>
 MakeJK  time:  CPU       0.18 s  wall       0.19 s
Fock build time:  0.18 s (CPU) 0.19 s (wall)
DIIS Errors:  Max 2.99E-05 RMS 3.64E-06

Current DIIS subspace size = 8
REM_GRID_RESTART_DIIS = 0

    8    -152.9006951872      3.64E-06  00000
Finding J and K together
 Job number = 22, Threshold = 1.00E-11
Integral type ranges set in mkLRange.C for JobNum: 22  <1-6|1-6>
 MakeJK  time:  CPU       0.19 s  wall       0.19 s
Fock build time:  0.19 s (CPU) 0.19 s (wall)
DIIS Errors:  Max 7.65E-06 RMS 1.52E-06

Current DIIS subspace size = 9
REM_GRID_RESTART_DIIS = 0

    9    -152.9006951915      1.52E-06  00000
Finding J and K together
 Job number = 22, Threshold = 1.00E-11
Integral type ranges set in mkLRange.C for JobNum: 22  <1-6|1-6>
 MakeJK  time:  CPU       0.16 s  wall       0.16 s
Fock build time:  0.16 s (CPU) 0.16 s (wall)
DIIS Errors:  Max 1.60E-06 RMS 3.60E-07

Current DIIS subspace size = 10
REM_GRID_RESTART_DIIS = 0

   10    -152.9006951921      3.60E-07  00000
Finding J and K together
 Job number = 22, Threshold = 1.00E-11
Integral type ranges set in mkLRange.C for JobNum: 22  <1-6|1-6>
 MakeJK  time:  CPU       0.13 s  wall       0.13 s
Fock build time:  0.13 s (CPU) 0.13 s (wall)
DIIS Errors:  Max 3.15E-07 RMS 6.58E-08

Current DIIS subspace size = 11
REM_GRID_RESTART_DIIS = 0

   11    -152.9006951921      6.58E-08  00000
Finding J and K together
 Job number = 22, Threshold = 1.00E-11
Integral type ranges set in mkLRange.C for JobNum: 22  <1-6|1-6>
 MakeJK  time:  CPU       0.13 s  wall       0.13 s
Fock build time:  0.13 s (CPU) 0.13 s (wall)
DIIS Errors:  Max 9.55E-08 RMS 1.85E-08

Current DIIS subspace size = 12
REM_GRID_RESTART_DIIS = 0

   12    -152.9006951921      1.85E-08  00000
Finding J and K together
 Job number = 22, Threshold = 1.00E-11
Integral type ranges set in mkLRange.C for JobNum: 22  <1-6|1-6>
 MakeJK  time:  CPU       0.14 s  wall       0.15 s
Fock build time:  0.14 s (CPU) 0.15 s (wall)
DIIS Errors:  Max 1.96E-08 RMS 3.68E-09

Current DIIS subspace size = 13
REM_GRID_RESTART_DIIS = 0

   13    -152.9006951921      3.68E-09  00000 Convergence criterion met
 ---------------------------------------
 SCF time:  CPU 2.04 s  wall 2.06 s
 SCF   energy in the final basis set = -152.90069519
 Total energy in the final basis set = -152.90069519
drvman_main.C: 73: calling DrvMan  Calculating analytic gradient of the SCF energy
drvman.C : 218: Calculating analytic gradient of the SCF energy
drvman.C: 244: calling SCF_Grad for normal SCF gradient
 Job number = 111, Threshold = 1.00E-11
Integral type ranges set in mkLRange.C for JobNum: 11  <1-6|7-7>
Finding J and K together
 ML is being used
 Job number = 122, Threshold = 1.00E-11
Integral type ranges set in mkLRange.C for JobNum: 22  <1-6|1-6>
[...]
    5      C       3.5451972969    -0.2818080112    -2.8978804518
    6      C       4.1209373336    -0.7333570030    -3.9973854799
    7      H       3.5806453960    -1.2541977226    -4.5811589829
    8      H       5.0300634309    -1.2331014553    -3.7898567116
    9      H       3.1913184565     0.3896089672    -0.7821106245
   10      H       2.4956769805     0.1615786547    -2.9153436796
 ----------------------------------------------------------------
 Nuclear Repulsion Energy =   102.4371643738 hartrees
 There are       15 alpha and       15 beta electrons

                       Distance Matrix (Angstroms)
             C (  1)   C (  2)   H (  3)   H (  4)   C (  5)   C (  6)
   C (  2)  1.458044
   H (  3)  1.062000  2.262421
   H (  4)  1.026760  2.129054  1.713948
   C (  5)  2.671320  1.459977  3.093213  3.493009
   C (  6)  3.391404  2.574339  3.411544  4.318092  1.320714
   H (  7)  4.311477  3.359681  4.360520  5.214865  1.944280  0.950780
   H (  8)  3.340004  2.870378  3.127572  4.199212  1.976211  1.057981
   H (  9)  2.245572  1.231808  3.237927  2.421546  2.247780  3.530331
   H ( 10)  3.313304  1.933671  3.920877  4.048213  1.139469  2.147835
             H (  7)   H (  8)   H (  9)
   H (  8)  1.651489
   H (  9)  4.157697  3.880813
   H ( 10)  2.440598  3.022089  2.255349

 Applying Cartesian multipole field
    Component          Value
    ---------          -----
     (2,0,0)        1.00000E-12
     (0,2,0)        2.00000E-10
     (0,0,2)       -3.00000E-12
 Nucleus-field energy     =     0.0000000114 hartrees
 ENuRep (before)= 102.4371643738
 ENucField = 0.0000000114
 ENuRep (after) = 102.4371643852
 Job number = 2, Threshold = 1.00E-11
Integral type ranges set in mkLRange.C for JobNum: 2  <1-6|1-6>
Symmetry turned off temporarily
Symmetry turned back on
 Job number = 11, Threshold = 1.00E-11
Integral type ranges set in mkLRange.C for JobNum: 11  <1-6|7-7>
 Smallest overlap matrix eigenvalue = 1.68E-01
 Multipole matrices computed through 2nd order
 Extrapolating the Fock matrix using 12 points and a 6th-order polynomial
 Alpha Fock matrix extrapolation
 Skip SCF guess (diagonalize extrapolated Fock matrix instead)
 SCF convergence criterion is 10**(-8)
 A restricted Hartree-Fock SCF calculation will be
 performed using Pulay DIIS extrapolation
 SCF converges when DIIS error is below 1.0E-08
Extrapolated Fock matrix used in lieu of Fock build
Fock build time:  0.00 s (CPU) 0.00 s (wall)
DIIS Errors:  Max 9.69E-02 RMS 1.06E-02

Current DIIS subspace size = 1
REM_GRID_RESTART_DIIS = 0

 ---------------------------------------
  Cycle       Energy         DIIS Error
 ---------------------------------------
    1    -306.5487857684      1.06E-02  00000
Finding J and K together
 Job number = 22, Threshold = 1.00E-11
Integral type ranges set in mkLRange.C for JobNum: 22  <1-6|1-6>
 MakeJK  time:  CPU       0.16 s  wall       0.15 s
Fock build time:  0.16 s (CPU) 0.15 s (wall)
DIIS Errors:  Max 5.29E-02 RMS 4.22E-03

Current DIIS subspace size = 2
REM_GRID_RESTART_DIIS = 0

    2    -152.8840335566      4.22E-03  00000
Finding J and K together
 Job number = 22, Threshold = 1.00E-11
Integral type ranges set in mkLRange.C for JobNum: 22  <1-6|1-6>
 MakeJK  time:  CPU       0.16 s  wall       0.16 s
Fock build time:  0.16 s (CPU) 0.16 s (wall)
DIIS Errors:  Max 1.38E-02 RMS 1.11E-03

Current DIIS subspace size = 3
REM_GRID_RESTART_DIIS = 0

    3    -152.8843120955      1.11E-03  00000
Finding J and K together
 Job number = 22, Threshold = 1.00E-11
Integral type ranges set in mkLRange.C for JobNum: 22  <1-6|1-6>
 MakeJK  time:  CPU       0.20 s  wall       0.20 s
Fock build time:  0.20 s (CPU) 0.20 s (wall)
DIIS Errors:  Max 2.21E-04 RMS 4.86E-05

Current DIIS subspace size = 4
REM_GRID_RESTART_DIIS = 0

    4    -152.8843364406      4.86E-05  00000
Finding J and K together
 Job number = 22, Threshold = 1.00E-11
Integral type ranges set in mkLRange.C for JobNum: 22  <1-6|1-6>
 MakeJK  time:  CPU       0.16 s  wall       0.16 s
Fock build time:  0.16 s (CPU) 0.16 s (wall)
DIIS Errors:  Max 1.01E-04 RMS 2.04E-05

Current DIIS subspace size = 5
REM_GRID_RESTART_DIIS = 0

    5    -152.8843367129      2.04E-05  00000
Finding J and K together
 Job number = 22, Threshold = 1.00E-11
Integral type ranges set in mkLRange.C for JobNum: 22  <1-6|1-6>
 MakeJK  time:  CPU       0.18 s  wall       0.21 s
Fock build time:  0.18 s (CPU) 0.21 s (wall)
DIIS Errors:  Max 2.60E-05 RMS 4.45E-06

Current DIIS subspace size = 6
REM_GRID_RESTART_DIIS = 0

    6    -152.8843367744      4.45E-06  00000
Finding J and K together
 Job number = 22, Threshold = 1.00E-11
Integral type ranges set in mkLRange.C for JobNum: 22  <1-6|1-6>
 MakeJK  time:  CPU       0.20 s  wall       0.22 s
Fock build time:  0.20 s (CPU) 0.22 s (wall)
DIIS Errors:  Max 1.15E-05 RMS 1.92E-06

Current DIIS subspace size = 7
REM_GRID_RESTART_DIIS = 0

    7    -152.8843367784      1.92E-06  00000
Finding J and K together
 Job number = 22, Threshold = 1.00E-11
Integral type ranges set in mkLRange.C for JobNum: 22  <1-6|1-6>
 MakeJK  time:  CPU       0.13 s  wall       0.13 s
Fock build time:  0.13 s (CPU) 0.13 s (wall)
DIIS Errors:  Max 3.31E-06 RMS 5.07E-07

Current DIIS subspace size = 8
REM_GRID_RESTART_DIIS = 0

    8    -152.8843367796      5.07E-07  00000
Finding J and K together
 Job number = 22, Threshold = 1.00E-11
Integral type ranges set in mkLRange.C for JobNum: 22  <1-6|1-6>
 MakeJK  time:  CPU       0.14 s  wall       0.13 s
Fock build time:  0.14 s (CPU) 0.14 s (wall)
DIIS Errors:  Max 1.20E-06 RMS 1.48E-07

Current DIIS subspace size = 9
REM_GRID_RESTART_DIIS = 0

    9    -152.8843367797      1.48E-07  00000
Finding J and K together
 Job number = 22, Threshold = 1.00E-11
Integral type ranges set in mkLRange.C for JobNum: 22  <1-6|1-6>
 MakeJK  time:  CPU       0.14 s  wall       0.14 s
Fock build time:  0.14 s (CPU) 0.14 s (wall)
DIIS Errors:  Max 4.67E-07 RMS 4.99E-08

Current DIIS subspace size = 10
REM_GRID_RESTART_DIIS = 0

   10    -152.8843367797      4.99E-08  00000
Finding J and K together
 Job number = 22, Threshold = 1.00E-11
Integral type ranges set in mkLRange.C for JobNum: 22  <1-6|1-6>
 MakeJK  time:  CPU       0.16 s  wall       0.16 s
Fock build time:  0.16 s (CPU) 0.16 s (wall)
DIIS Errors:  Max 8.53E-08 RMS 1.17E-08

Current DIIS subspace size = 11
REM_GRID_RESTART_DIIS = 0

   11    -152.8843367797      1.17E-08  00000
Finding J and K together
 Job number = 22, Threshold = 1.00E-11
Integral type ranges set in mkLRange.C for JobNum: 22  <1-6|1-6>
 MakeJK  time:  CPU       0.14 s  wall       0.14 s
Fock build time:  0.14 s (CPU) 0.14 s (wall)
DIIS Errors:  Max 1.56E-08 RMS 2.50E-09

Current DIIS subspace size = 12
REM_GRID_RESTART_DIIS = 0

   12    -152.8843367797      2.50E-09  00000 Convergence criterion met
 ---------------------------------------
 SCF time:  CPU 1.77 s  wall 1.84 s
 SCF   energy in the final basis set = -152.88433678
 Total energy in the final basis set = -152.88433678
drvman_main.C: 73: calling DrvMan  Calculating analytic gradient of the SCF energy
drvman.C : 218: Calculating analytic gradient of the SCF energy
drvman.C: 244: calling SCF_Grad for normal SCF gradient
 Job number = 111, Threshold = 1.00E-11
Integral type ranges set in mkLRange.C for JobNum: 11  <1-6|7-7>
Finding J and K together
 ML is being used
 Job number = 122, Threshold = 1.00E-11
Integral type ranges set in mkLRange.C for JobNum: 22  <1-6|1-6>
 MakeJK  time:  CPU       0.38 s  wall       0.38 s
 Gradient of SCF Energy
            1           2           3           4           5           6
    1   0.1461031  -0.1269577  -0.0069124   0.0018817   0.0793614  -0.0779206
    2   0.0963856  -0.0301427  -0.0045463  -0.0278996  -0.1128532  -0.0193028
    3   0.0735205  -0.1543617   0.0291485  -0.0593617   0.0185985  -0.1481427
            7           8           9          10
    1   0.0991829  -0.0411211  -0.0568598  -0.0167575
    2   0.0703836  -0.0082146  -0.0115970   0.0477870
    3   0.1277453   0.0146423   0.0748052   0.0234059
 Max gradient component =       1.544E-01
 RMS gradient           =       7.639E-02
drvman.C: 248: out of SCF_Grad for normal SCF gradient
 Gradient time:  CPU 0.40 s  wall 0.40 s
 ------------------------------------------------------------------------------
                     drvman        : Timing summary (seconds)
 ------------------------------------------------------------------------------
     job step          cpu (% of tot)      sys (% of tot)     wall (% of tot)
 ------------------------------------------------------------------------------
 ------------------------------------------------------------------------------
   Grand Totals     0.3960E+00          0.1000E-05          0.3981E+00
 ------------------------------------------------------------------------------
drvman_main.C: 77: out of DrvMan  Time for this dynamics step: 2.2 s (CPU) 2.3 s (wall)

TIME STEP #400 (t = 7980.000 a.u. = 193.02697 fs)
--------------------------------------
 Instantaneous Temperature = 4401.9 K
 ----------------------------------------------------------------
             Standard Nuclear Orientation (Angstroms)
    I     Atom           X                Y                Z
 ----------------------------------------------------------------
    1      C       5.2777600475     1.0235338441    -1.3371264028
    2      C       3.9799147588     0.4532498253    -1.7131456110
    3      H       6.2370349150     0.9092693939    -1.8077180232
    4      H       5.5153008493     1.1110361994    -0.2943321727
    5      C       3.5427350139    -0.2775666322    -2.8963981347
    6      C       4.1237851627    -0.7402310129    -4.0055435587
    7      H       3.5906177907    -1.3158652873    -4.5845847324
    8      H       4.9886546503    -1.1920088440    -3.8044403479
    9      H       3.2074213672     0.3996616715    -0.8076917389
   10      H       2.4851024529     0.1769800850    -2.8834635191
 ----------------------------------------------------------------
 Nuclear Repulsion Energy =   102.0659334841 hartrees
 There are       15 alpha and       15 beta electrons

                       Distance Matrix (Angstroms)
             C (  1)   C (  2)   H (  3)   H (  4)   C (  5)   C (  6)
   C (  2)  1.466634
   H (  3)  1.074580  2.304667
   H (  4)  1.073081  2.191603  1.688771
   C (  5)  2.671049  1.457843  3.138958  3.548236
   C (  6)  3.400437  2.588471  3.466571  4.374540  1.334871
   H (  7)  4.343411  3.395067  4.434607  5.291552  1.982506  0.975147
   H (  8)  3.328641  2.845689  3.156061  4.231103  1.936861  0.996265
   H (  9)  2.226167  1.191413  3.230837  2.468988  2.221209  3.516438
   H ( 10)  3.302537  1.918445  3.971206  4.093674  1.151246  2.187606
             H (  7)   H (  8)   H (  9)
   H (  8)  1.605762
   H (  9)  4.165908  3.832324
   H ( 10)  2.518842  2.998350  2.209108

 Applying Cartesian multipole field
    Component          Value
    ---------          -----
     (2,0,0)        1.00000E-12
     (0,2,0)        2.00000E-10
     (0,0,2)       -3.00000E-12
 Nucleus-field energy     =     0.0000000115 hartrees
 ENuRep (before)= 102.0659334841
 ENucField = 0.0000000115
 ENuRep (after) = 102.0659334957
 Job number = 2, Threshold = 1.00E-11
Integral type ranges set in mkLRange.C for JobNum: 2  <1-6|1-6>
Symmetry turned off temporarily
Symmetry turned back on
 Job number = 11, Threshold = 1.00E-11
Integral type ranges set in mkLRange.C for JobNum: 11  <1-6|7-7>
 Smallest overlap matrix eigenvalue = 1.71E-01
 Multipole matrices computed through 2nd order
 Extrapolating the Fock matrix using 12 points and a 6th-order polynomial
 Alpha Fock matrix extrapolation
 Skip SCF guess (diagonalize extrapolated Fock matrix instead)
 SCF convergence criterion is 10**(-8)
 A restricted Hartree-Fock SCF calculation will be
 performed using Pulay DIIS extrapolation
 SCF converges when DIIS error is below 1.0E-08
Extrapolated Fock matrix used in lieu of Fock build
Fock build time:  0.00 s (CPU) 0.00 s (wall)
DIIS Errors:  Max 1.30E-01 RMS 1.30E-02

Current DIIS subspace size = 1
REM_GRID_RESTART_DIIS = 0

 ---------------------------------------
  Cycle       Energy         DIIS Error
 ---------------------------------------
    1    -306.0589600233      1.30E-02  00000
Finding J and K together
 Job number = 22, Threshold = 1.00E-11
Integral type ranges set in mkLRange.C for JobNum: 22  <1-6|1-6>
 MakeJK  time:  CPU       0.17 s  wall       0.18 s
Fock build time:  0.17 s (CPU) 0.18 s (wall)
DIIS Errors:  Max 5.62E-02 RMS 6.24E-03

Current DIIS subspace size = 2
REM_GRID_RESTART_DIIS = 0

    2    -152.8806016571      6.24E-03  00000
Finding J and K together
 Job number = 22, Threshold = 1.00E-11
Integral type ranges set in mkLRange.C for JobNum: 22  <1-6|1-6>
 MakeJK  time:  CPU       0.16 s  wall       0.16 s
Fock build time:  0.16 s (CPU) 0.16 s (wall)
DIIS Errors:  Max 1.75E-02 RMS 1.97E-03

Current DIIS subspace size = 3
REM_GRID_RESTART_DIIS = 0

    3    -152.8811798785      1.97E-03  00000
Finding J and K together
 Job number = 22, Threshold = 1.00E-11
Integral type ranges set in mkLRange.C for JobNum: 22  <1-6|1-6>
 MakeJK  time:  CPU       0.12 s  wall       0.12 s
Fock build time:  0.12 s (CPU) 0.12 s (wall)
DIIS Errors:  Max 3.13E-04 RMS 4.35E-05

Current DIIS subspace size = 4
REM_GRID_RESTART_DIIS = 0

    4    -152.8812507199      4.35E-05  00000
Finding J and K together
 Job number = 22, Threshold = 1.00E-11
Integral type ranges set in mkLRange.C for JobNum: 22  <1-6|1-6>
 MakeJK  time:  CPU       0.12 s  wall       0.13 s
Fock build time:  0.12 s (CPU) 0.13 s (wall)
DIIS Errors:  Max 1.76E-04 RMS 3.13E-05

Current DIIS subspace size = 5
REM_GRID_RESTART_DIIS = 0

    5    -152.8812512007      3.13E-05  00000
Finding J and K together
 Job number = 22, Threshold = 1.00E-11
Integral type ranges set in mkLRange.C for JobNum: 22  <1-6|1-6>
 MakeJK  time:  CPU       0.15 s  wall       0.16 s
Fock build time:  0.15 s (CPU) 0.16 s (wall)
DIIS Errors:  Max 4.75E-05 RMS 9.01E-06

Current DIIS subspace size = 6
REM_GRID_RESTART_DIIS = 0

    6    -152.8812513355      9.01E-06  00000
Finding J and K together
 Job number = 22, Threshold = 1.00E-11
Integral type ranges set in mkLRange.C for JobNum: 22  <1-6|1-6>
 MakeJK  time:  CPU       0.14 s  wall       0.14 s
Fock build time:  0.14 s (CPU) 0.14 s (wall)
DIIS Errors:  Max 2.80E-05 RMS 4.15E-06

Current DIIS subspace size = 7
REM_GRID_RESTART_DIIS = 0

    7    -152.8812513634      4.15E-06  00000
Finding J and K together
 Job number = 22, Threshold = 1.00E-11
Integral type ranges set in mkLRange.C for JobNum: 22  <1-6|1-6>
 MakeJK  time:  CPU       0.14 s  wall       0.15 s
Fock build time:  0.14 s (CPU) 0.15 s (wall)
DIIS Errors:  Max 9.60E-06 RMS 1.41E-06

Current DIIS subspace size = 8
REM_GRID_RESTART_DIIS = 0

    8    -152.8812513672      1.41E-06  00000
Finding J and K together
 Job number = 22, Threshold = 1.00E-11
Integral type ranges set in mkLRange.C for JobNum: 22  <1-6|1-6>
 MakeJK  time:  CPU       0.13 s  wall       0.13 s
Fock build time:  0.13 s (CPU) 0.13 s (wall)
DIIS Errors:  Max 2.14E-06 RMS 3.93E-07

Current DIIS subspace size = 9
REM_GRID_RESTART_DIIS = 0

    9    -152.8812513678      3.93E-07  00000
Finding J and K together
 Job number = 22, Threshold = 1.00E-11
Integral type ranges set in mkLRange.C for JobNum: 22  <1-6|1-6>
 MakeJK  time:  CPU       0.19 s  wall       0.20 s
Fock build time:  0.19 s (CPU) 0.20 s (wall)
DIIS Errors:  Max 3.87E-07 RMS 7.69E-08

Current DIIS subspace size = 10
REM_GRID_RESTART_DIIS = 0

   10    -152.8812513678      7.69E-08  00000
Finding J and K together
 Job number = 22, Threshold = 1.00E-11
Integral type ranges set in mkLRange.C for JobNum: 22  <1-6|1-6>
 MakeJK  time:  CPU       0.16 s  wall       0.16 s
Fock build time:  0.16 s (CPU) 0.16 s (wall)
DIIS Errors:  Max 9.60E-08 RMS 1.79E-08

Current DIIS subspace size = 11
REM_GRID_RESTART_DIIS = 0

   11    -152.8812513678      1.79E-08  00000
Finding J and K together
 Job number = 22, Threshold = 1.00E-11
Integral type ranges set in mkLRange.C for JobNum: 22  <1-6|1-6>
 MakeJK  time:  CPU       0.12 s  wall       0.12 s
Fock build time:  0.12 s (CPU) 0.12 s (wall)
DIIS Errors:  Max 2.47E-08 RMS 4.49E-09

Current DIIS subspace size = 12
REM_GRID_RESTART_DIIS = 0

   12    -152.8812513678      4.49E-09  00000 Convergence criterion met
 ---------------------------------------
 SCF time:  CPU 1.62 s  wall 1.67 s
 SCF   energy in the final basis set = -152.88125137
 Total energy in the final basis set = -152.88125137
drvman_main.C: 73: calling DrvMan  Calculating analytic gradient of the SCF energy
drvman.C : 218: Calculating analytic gradient of the SCF energy
drvman.C: 244: calling SCF_Grad for normal SCF gradient
 Job number = 111, Threshold = 1.00E-11
Integral type ranges set in mkLRange.C for JobNum: 11  <1-6|7-7>
Finding J and K together
 ML is being used
 Job number = 122, Threshold = 1.00E-11
Integral type ranges set in mkLRange.C for JobNum: 22  <1-6|1-6>
 MakeJK  time:  CPU       0.49 s  wall       0.50 s
 Gradient of SCF Energy
            1           2           3           4           5           6
    1   0.1209051  -0.1496129   0.0055455   0.0204897   0.0805240   0.0176847
    2   0.0982271  -0.0399259  -0.0048639  -0.0239068  -0.1048180  -0.0416987
    3   0.0212177  -0.1370271   0.0357294  -0.0155654   0.0307747  -0.1235167
            7           8           9          10
    1   0.0782500  -0.1075083  -0.0444989  -0.0217788
    2   0.0509230   0.0233514  -0.0106043   0.0533161
    3   0.1003647  -0.0010076   0.0604147   0.0286155
 Max gradient component =       1.496E-01
 RMS gradient           =       6.989E-02
drvman.C: 248: out of SCF_Grad for normal SCF gradient
 Gradient time:  CPU 0.52 s  wall 0.52 s
 ------------------------------------------------------------------------------
                     drvman        : Timing summary (seconds)
 ------------------------------------------------------------------------------
     job step          cpu (% of tot)      sys (% of tot)     wall (% of tot)
 ------------------------------------------------------------------------------
 ------------------------------------------------------------------------------
   Grand Totals     0.5160E+00          0.2000E-05          0.5177E+00
 ------------------------------------------------------------------------------
drvman_main.C: 77: out of DrvMan  Time for this dynamics step: 2.2 s (CPU) 2.2 s (wall)

=============== TIME STEPS COMPLETED ==================

Step-to-Step energy fluctuations, |E(n) - E(n-1)|
Mean: -5.237e-06   Max: 2.547e-03   RMS: 5.291e-04
Overall energy fluctuations, |E(n) - E(0)|
Mean: -1.869e-03   Max: 4.034e-03   RMS: 6.984e-04   RMS(dE)/RMS(dV): 1.586e-02
Kinetic energy fluctuations, |T(n) - V(0)|
Mean: 1.513e-01   Max: 2.499e-01   RMS: 4.354e-02
Potential energy fluctuations, |V(n) - V(0)|
Mean: -1.532e-01   Max: 2.531e-01   RMS: 4.403e-02


 JobOver = TRUE
Archival summary:
1\1\qciep03\JobtypUnspecified\HF\STO-3G\46\jcartus\MonJun1812:48:422018MonJun1812:48:422018\0\\#,JobtypUnspecified,HF,STO-3G,\\0,1\C\H,1,1.15125\C,1,1.33487,2,123.098\H,3,0.975147,1,117.387,2,-46.3177,0\H,3,0.996265,1,111.551,2,-173.212,0\C,1,1.45784,2,93.9249,3,154.601,0\H,6,1.19141,1,113.569,2,47.8365,0\C,6,1.46663,1,131.943,2,-145.397,0\H,8,1.07308,6,118.473,1,-152.008,0\H,8,1.07458,6,129.519,1,-9.22599,0\\HF=-152.881251\\@

 Total job time:  1005.44s(wall), 974.25s(cpu) 
 Mon Jun 18 12:48:42 2018

        *************************************************************
        *                                                           *
        *  Thank you very much for using Q-Chem.  Have a nice day.  *
        *                                                           *
        *************************************************************


*** MISSION COMPLETED -- STARFLEET OUT ***

0 sent ACK to 0 
now end server 0 ... 
