Process 0 of 1 is on qciep03 - thread support 0
initial socket setup ...start
initial socket setup ...done 
now start server 0 ... 
qciep03.tugraz.at 127.0.1
Q-Chem Developer Version! Running on 127.0.1.*
                  Welcome to Q-Chem
     A Quantum Leap Into The Future Of Chemistry


 Q-Chem 5.0, Q-Chem, Inc., Pleasanton, CA (2017)

 Yihan Shao,  Zhengting Gan,  E. Epifanovsky,  A. T. B. Gilbert,  M. Wormit,  
 J. Kussmann,  A. W. Lange,  A. Behn,  Jia Deng,  Xintian Feng,  D. Ghosh,  
 M. Goldey,  P. R. Horn,  L. D. Jacobson,  I. Kaliman,  T. Kus,  A. Landau,  
 Jie Liu,  E. I. Proynov,  R. M. Richard,  R. P. Steele,  E. J. Sundstrom,  
 H. L. Woodcock III,  P. M. Zimmerman,  D. Zuev,  B. Albrecht,  E. Alguire,  
 S. A. Baeppler,  D. Barton,  Z. Benda,  Y. A. Bernard,  E. J. Berquist,  
 K. B. Bravaya,  H. Burton,  D. Casanova,  Chun-Min Chang,  Yunqing Chen,  
 A. Chien,  K. D. Closser,  M. P. Coons,  S. Dasgupta,  A. L. Dempwolff,  
 M. Diedenhofen,  Hainam Do,  R. G. Edgar,  Po-Tung Fang,  S. Fatehi,  
 Qingguo Feng,  J. Fosso-Tande,  Qinghui Ge,  A. Ghysels,  G. Gidofalvi,  
 J. Gomes,  J. Gonthier,  A. Gunina,  M. W. D. Hanson-Heine,  
 P. H. P. Harbach,  A. W. Hauser,  J. E. Herr,  E. G. Hohenstein,  
 Z. C. Holden,  Kerwin Hui,  T.-C. Jagau,  Hyunjun Ji,  B. Kaduk,  
 K. Khistyaev,  Jaehoon Kim,  P. Klunzinger,  K. Koh,  D. Kosenkov,  
 L. Koulias,  T. Kowalczyk,  C. M. Krauter,  A. Kunitsa,  Ka Un Lao,  
 A. Laurent,  K. V. Lawler,  Joonho Lee,  D. Lefrancois,  S. Lehtola,  
 D. S. Levine,  Yi-Pei Li,  You-Sheng Lin,  Fenglai Liu,  E. Livshits,  
 A. Luenser,  P. Manohar,  E. Mansoor,  S. F. Manzer,  Shan-Ping Mao,  
 Yuezhi Mao,  N. Mardirossian,  A. V. Marenich,  T. Markovich,  
 L. A. Martinez-Martinez,  S. A. Maurer,  N. J. Mayhall,  S. C. McKenzie,  
 J.-M. Mewes,  A. F. Morrison,  J. W. Mullinax,  K. Nanda,  
 T. S. Nguyen-Beck,  R. Olivares-Amaya,  J. A. Parkhill,  T. M. Perrine,  
 F. Plasser,  S. Prager,  A. Prociuk,  E. Ramos,  D. R. Rehn,  F. Rob,  
 M. Schneider,  N. Sergueev,  S. M. Sharada,  S. Sharma,  D. W. Small,  
 T. Stauch,  T. Stein,  Yu-Chuan Su,  A. J. W. Thom,  A. Tkatchenko,  
 T. Tsuchimochi,  L. Vogt,  O. Vydrov,  M. A. Watson,  J. Wenzel,  
 M. de Wergifosse,  T. A. Wesolowski,  A. White,  J. Witte,  A. Yamada,  
 Jun Yang,  K. Yao,  S. Yeganeh,  S. R. Yost,  Zhi-Qiang You,  A. Zech,  
 Igor Ying Zhang,  Xing Zhang,  Yan Zhao,  Ying Zhu,  B. R. Brooks,  
 G. K. L. Chan,  C. J. Cramer,  M. S. Gordon,  W. J. Hehre,  A. Klamt,  
 M. W. Schmidt,  C. D. Sherrill,  D. G. Truhlar,  A. Aspuru-Guzik,  R. Baer,  
 A. T. Bell,  N. A. Besley,  Jeng-Da Chai,  R. A. DiStasio Jr.,  A. Dreuw,  
 B. D. Dunietz,  T. R. Furlani,  Chao-Ping Hsu,  Yousung Jung,  Jing Kong,  
 D. S. Lambrecht,  WanZhen Liang,  C. Ochsenfeld,  V. A. Rassolov,  
 L. V. Slipchenko,  J. E. Subotnik,  T. Van Voorhis,  J. M. Herbert,  
 A. I. Krylov,  P. M. W. Gill,  M. Head-Gordon

 Contributors to earlier versions of Q-Chem not listed above: 
 R. D. Adamson,  B. Austin,  J. Baker,  G. J. O. Beran,  K. Brandhorst,  
 S. T. Brown,  E. F. C. Byrd,  A. K. Chakraborty,  C.-L. Cheng,  
 Siu Hung Chien,  D. M. Chipman,  D. L. Crittenden,  H. Dachsel,  
 R. J. Doerksen,  A. D. Dutoi,  L. Fusti-Molnar,  W. A. Goddard III,  
 A. Golubeva-Zadorozhnaya,  S. R. Gwaltney,  G. Hawkins,  A. Heyden,  
 S. Hirata,  G. Kedziora,  F. J. Keil,  C. Kelley,  Jihan Kim,  R. A. King,  
 R. Z. Khaliullin,  P. P. Korambath,  W. Kurlancheek,  A. M. Lee,  M. S. Lee,  
 S. V. Levchenko,  Ching Yeh Lin,  D. Liotard,  R. C. Lochan,  I. Lotan,  
 P. E. Maslen,  N. Nair,  D. P. O'Neill,  D. Neuhauser,  E. Neuscamman,  
 C. M. Oana,  R. Olson,  B. Peters,  R. Peverati,  P. A. Pieniazek,  
 Y. M. Rhee,  J. Ritchie,  M. A. Rohrdanz,  E. Rosta,  N. J. Russ,  
 H. F. Schaefer III,  N. E. Schultz,  N. Shenvi,  A. C. Simmonett,  A. Sodt,  
 D. Stuck,  K. S. Thanthiriwatte,  V. Vanovschi,  Tao Wang,  A. Warshel,  
 C. F. Williams,  Q. Wu,  X. Xu,  W. Zhang

 Please cite Q-Chem as follows:
 Y. Shao et al., Mol. Phys. 113, 184-215 (2015)
 DOI: 10.1080/00268976.2014.952696

 Q-Chem 5.0.2 for Intel X86 EM64T Linux

 Parts of Q-Chem use Armadillo 5.200.1 (Boston Tea Smuggler).
 http://arma.sourceforge.net/

 Q-Chem begins on Mon Jun 18 12:39:38 2018  


Host: 0

     Scratch files written to /home/jcartus/scratch/Butadien_21.mol.dir//
 Using version located at /usr/local/qchem/bin/qchem

 Parallel job on  1  processors
Symmetry disabled for AIMD jobs.

Total Memory Limit in MB = 2000
Mega-Array Size in MB = 192

Checking the input file for inconsistencies... 	...done.
Finally everything over in PARseQInput

--------------------------------------------------------------
User input:
--------------------------------------------------------------
$rem
AIMD_STEPS                    400
FOCK_EXTRAP_POINTS            12
MAX_SCF_CYCLES                100
BASIS                         sto-3g
AIMD_INIT_VELOC               thermal
FOCK_EXTRAP_ORDER             6
AIMD_TEMP                     400
AIMD_METHOD                   bomd
TIME_STEP                     20
METHOD                        hf
JOBTYPE                       aimd
$end

$molecule
0 1
C    3.04399    -0.45610    0.56218
C    3.37633    -0.03820    -1.02374
H    3.70318    -1.00984    0.80951
H    2.39686    -0.10577    1.15812
C    4.63990    -1.03208    -1.03077
C    5.24864    -1.94196    -0.04917
H    5.95852    -2.01443    -0.92424
H    5.35849    -2.23597    1.10227
H    2.82649    0.69779    -1.67501
H    5.27736    -0.81519    -2.36385
$end


--------------------------------------------------------------
 ----------------------------------------------------------------
             Standard Nuclear Orientation (Angstroms)
    I     Atom           X                Y                Z
 ----------------------------------------------------------------
    1      C       3.0439900000    -0.4561000000     0.5621800000
    2      C       3.3763300000    -0.0382000000    -1.0237400000
    3      H       3.7031800000    -1.0098400000     0.8095100000
    4      H       2.3968600000    -0.1057700000     1.1581200000
    5      C       4.6399000000    -1.0320800000    -1.0307700000
    6      C       5.2486400000    -1.9419600000    -0.0491700000
    7      H       5.9585200000    -2.0144300000    -0.9242400000
    8      H       5.3584900000    -2.2359700000     1.1022700000
    9      H       2.8264900000     0.6977900000    -1.6750100000
   10      H       5.2773600000    -0.8151900000    -2.3638500000
 ----------------------------------------------------------------
 Nuclear Repulsion Energy =    99.5339833485 hartrees
 There are       15 alpha and       15 beta electrons
 Requested basis set is STO-3G
 There are 14 shells and 26 basis functions

 Total QAlloc Memory Limit   2000 MB
 Mega-Array Size       188 MB
 MEM_STATIC part       192 MB

finished with qalloc call

                       Distance Matrix (Angstroms)
             C (  1)   C (  2)   H (  3)   H (  4)   C (  5)   C (  6)
   C (  2)  1.673390
   H (  3)  0.895730  2.100410
   H (  4)  0.946918  2.392580  1.626451
   C (  5)  2.327267  1.607624  2.065083  3.268106
   C (  6)  2.728005  2.842470  1.998656  3.600249  1.470369
   H (  7)  3.623855  3.253166  3.016894  4.545836  1.647762  1.129128
   H (  8)  2.969267  3.644046  2.080662  3.648578  2.552564  1.193450
   H (  9)  2.526616  1.126125  3.139654  2.976057  2.587654  3.934266
   H ( 10)  3.698451  2.452249  3.547696  4.604870  1.493485  2.574525
             H (  7)   H (  8)   H (  9)
   H (  8)  2.125055
   H (  9)  4.210630  4.767731
   H ( 10)  1.993648  3.746890  2.961482

 Job number = 2, Threshold = 1.00E-11
Integral type ranges set in mkLRange.C for JobNum: 2  <1-6|1-6>
Symmetry turned off temporarily
 Using the largest function pair in Schwarz integrals
Total number of integrals generated =            3252
Symmetry turned back on
 A cutoff of  1.0D-11 yielded    102 shell pairs
 There are       372 function pairs
 Job number = 11, Threshold = 1.00E-11
Integral type ranges set in mkLRange.C for JobNum: 11  <1-6|7-7>
Total number of integrals generated =            3720
 Smallest overlap matrix eigenvalue = 1.73E-01
 Multipole matrices computed through 2nd order

 Scale SEOQF with 1.000000e-02/1.000000e-01/1.000000e-01

 Standard Electronic Orientation quadrupole field applied
 Nucleus-field energy     =     0.0000000020 hartrees
 ENuRep (before)= 99.5339833485
 ENucField = 0.0000000020
 ENuRep (after) = 99.5339833505
 Guess from superposition of atomic densities
 Warning:  Energy on first SCF cycle will be non-variational
 SAD guess density has 30.000000 electrons

 ==================================================
    GEN_SCFMAN: A general SCF calculation manager  
                                                   
    Authors:                                       
        -- Eric Jon Sundstrom 2008-2014            
        -- Paul Horn 2010-2015                     
        -- Yuezhi Mao 2012-                        
        -- Dmitri Zuev 2014                        
        -- Alec White 2015-                        
        -- David Stuck 2015                        
        -- Shaama M.S. 2015                        
        -- Shane Yost 2015-                         
        -- Joonho Lee 2016-                        
        -- David Small 2016-                       
        -- Daniel Levine 2016-                     
        -- Susi Lehtola 2017-                      
        -- Hugh Burton 2017-                       
 ==================================================
 Hartree-Fock
Finding J and K together
 Job number = 22, Threshold = 1.00E-11
Integral type ranges set in mkLRange.C for JobNum: 22  <1-6|1-6>
 MakeJK  time:  CPU       0.16 s  wall       0.17 s
 A restricted SCF calculation will be
 performed using DIIS
 SCF converges when DIIS error is below 1.0e-08
 ---------------------------------------
  Cycle       Energy         DIIS error
 ---------------------------------------
Finding J and K together
 Job number = 22, Threshold = 1.00E-11
Integral type ranges set in mkLRange.C for JobNum: 22  <1-6|1-6>
 MakeJK  time:  CPU       0.19 s  wall       0.20 s
    1    -151.7403745291      1.71e-01  
Finding J and K together
 Job number = 22, Threshold = 1.00E-11
Integral type ranges set in mkLRange.C for JobNum: 22  <1-6|1-6>
 MakeJK  time:  CPU       0.19 s  wall       0.21 s
    2    -152.5144790383      1.73e-02  
Finding J and K together
 Job number = 22, Threshold = 1.00E-11
Integral type ranges set in mkLRange.C for JobNum: 22  <1-6|1-6>
 MakeJK  time:  CPU       0.14 s  wall       0.14 s
    3    -152.5468411114      1.25e-02  
Finding J and K together
 Job number = 22, Threshold = 1.00E-11
Integral type ranges set in mkLRange.C for JobNum: 22  <1-6|1-6>
 MakeJK  time:  CPU       0.15 s  wall       0.15 s
    4    -152.5629206230      3.54e-03  
Finding J and K together
 Job number = 22, Threshold = 1.00E-11
Integral type ranges set in mkLRange.C for JobNum: 22  <1-6|1-6>
 MakeJK  time:  CPU       0.13 s  wall       0.13 s
    5    -152.5649358363      5.19e-04  
Finding J and K together
 Job number = 22, Threshold = 1.00E-11
Integral type ranges set in mkLRange.C for JobNum: 22  <1-6|1-6>
 MakeJK  time:  CPU       0.15 s  wall       0.15 s
    6    -152.5649857503      2.06e-04  
Finding J and K together
 Job number = 22, Threshold = 1.00E-11
Integral type ranges set in mkLRange.C for JobNum: 22  <1-6|1-6>
 MakeJK  time:  CPU       0.14 s  wall       0.14 s
    7    -152.5649999959      8.97e-05  
Finding J and K together
 Job number = 22, Threshold = 1.00E-11
Integral type ranges set in mkLRange.C for JobNum: 22  <1-6|1-6>
 MakeJK  time:  CPU       0.15 s  wall       0.16 s
    8    -152.5650032202      3.88e-05  
Finding J and K together
 Job number = 22, Threshold = 1.00E-11
Integral type ranges set in mkLRange.C for JobNum: 22  <1-6|1-6>
 MakeJK  time:  CPU       0.15 s  wall       0.15 s
    9    -152.5650039010      2.13e-05  
Finding J and K together
 Job number = 22, Threshold = 1.00E-11
Integral type ranges set in mkLRange.C for JobNum: 22  <1-6|1-6>
 MakeJK  time:  CPU       0.18 s  wall       0.18 s
   10    -152.5650040191      7.69e-06  
Finding J and K together
 Job number = 22, Threshold = 1.00E-11
Integral type ranges set in mkLRange.C for JobNum: 22  <1-6|1-6>
 MakeJK  time:  CPU       0.17 s  wall       0.18 s
   11    -152.5650040521      2.44e-06  
Finding J and K together
 Job number = 22, Threshold = 1.00E-11
Integral type ranges set in mkLRange.C for JobNum: 22  <1-6|1-6>
 MakeJK  time:  CPU       0.18 s  wall       0.18 s
   12    -152.5650040540      5.79e-07  
Finding J and K together
 Job number = 22, Threshold = 1.00E-11
Integral type ranges set in mkLRange.C for JobNum: 22  <1-6|1-6>
 MakeJK  time:  CPU       0.16 s  wall       0.17 s
   13    -152.5650040541      1.19e-07  
Finding J and K together
 Job number = 22, Threshold = 1.00E-11
Integral type ranges set in mkLRange.C for JobNum: 22  <1-6|1-6>
 MakeJK  time:  CPU       0.20 s  wall       0.20 s
   14    -152.5650040541      1.68e-08  
   15    -152.5650040541      4.82e-09  Convergence criterion met
 ---------------------------------------
 SCF time:   CPU 2.47s  wall 2.00s 
 Total energy in the final basis set =     -152.5650040541
Wall  1 = 2
Clock 1 = 2.4694600105
 ==================================================
                  Done GEN_SCFMAN                  
 ==================================================

Symmetry turned off temporarily

 --------------------------------------------------------------

                    Orbital Energies (a.u.)
 --------------------------------------------------------------

 Alpha MOs
 -- Occupied --
-11.047 -11.028 -10.998 -10.991  -0.980  -0.886  -0.787  -0.646
 -0.623  -0.521  -0.473  -0.432  -0.326  -0.315  -0.196
 -- Virtual --
  0.188   0.319   0.379   0.486   0.531   0.559   0.653   0.787
  0.911   0.935   1.103
 --------------------------------------------------------------

          Ground-State Mulliken Net Atomic Charges

     Atom                 Charge (a.u.)
  ----------------------------------------
      1 C                    -0.210536
      2 C                    -0.051381
      3 H                     0.091406
      4 H                     0.073100
      5 C                     0.029040
      6 C                    -0.162382
      7 H                     0.079516
      8 H                     0.091987
      9 H                     0.085912
     10 H                    -0.026662
  ----------------------------------------
  Sum of atomic charges =     0.000000

 -----------------------------------------------------------------
                    Cartesian Multipole Moments
 -----------------------------------------------------------------
    Charge (ESU x 10^10)
                -0.0000
    Dipole Moment (Debye)
         X       0.0793      Y       0.3119      Z      -0.0123
       Tot       0.3221
    Quadrupole Moments (Debye-Ang)
        XX     -23.3443     XY       0.0892     YY     -24.5476
        XZ       0.7668     YZ      -1.9559     ZZ     -21.7156
    Octopole Moments (Debye-Ang^2)
       XXX    -292.6667    XXY      17.6742    XYY    -100.6749
       YYY      66.4444    XXZ      14.7677    XYZ      -7.9941
       YYZ      11.9258    XZZ     -89.3261    YZZ      20.2221
       ZZZ      26.0687
    Hexadecapole Moments (Debye-Ang^3)
      XXXX   -2591.2948   XXXY     284.5905   XXYY    -477.6127
      XYYY     324.7152   YYYY    -229.2820   XXXZ     156.2384
      XXYZ     -38.3738   XYYZ      57.8008   YYYZ     -21.6366
      XXZZ    -412.5859   XYZZ      93.9343   YYZZ     -55.8813
      XZZZ     123.0765   YZZZ     -17.2671   ZZZZ    -140.9289
 -----------------------------------------------------------------
drvman_main.C: 73: calling DrvMan  Calculating analytic gradient of the SCF energy
drvman.C : 218: Calculating analytic gradient of the SCF energy
drvman.C: 244: calling SCF_Grad for normal SCF gradient
 Job number = 111, Threshold = 1.00E-11
Integral type ranges set in mkLRange.C for JobNum: 11  <1-6|7-7>
Finding J and K together
 ML is being used
 Job number = 122, Threshold = 1.00E-11
Integral type ranges set in mkLRange.C for JobNum: 22  <1-6|1-6>
Total number of integrals generated =           70266
 MakeJK  time:  CPU       0.48 s  wall       0.49 s
 Gradient of SCF Energy
            1           2           3           4           5           6
    1   0.0591248   0.0048539  -0.1771799   0.1236826  -0.0200405   0.0004721
    2  -0.1933409   0.1186836   0.1640489  -0.0666741  -0.0285112  -0.0988896
    3   0.4069480  -0.2864274  -0.0939759  -0.1026500   0.0639885   0.1504190
            7           8           9          10
    1  -0.0369231   0.0171918  -0.0243685   0.0531868
    2   0.0619806  -0.0225272   0.0274864   0.0377435
    3  -0.0770964   0.0832559  -0.0116253  -0.1328364
 Max gradient component =       4.069E-01
 RMS gradient           =       1.265E-01
drvman.C: 248: out of SCF_Grad for normal SCF gradient
 Gradient time:  CPU 0.50 s  wall 0.51 s
 ------------------------------------------------------------------------------
                     drvman        : Timing summary (seconds)
 ------------------------------------------------------------------------------
     job step          cpu (% of tot)      sys (% of tot)     wall (% of tot)
 ------------------------------------------------------------------------------
 ------------------------------------------------------------------------------
   Grand Totals     0.4960E+00          0.0000E+00          0.5135E+00
 ------------------------------------------------------------------------------
drvman_main.C: 77: out of DrvMan =======================================================
            AB INITIO MOLECULAR DYNAMICS
=======================================================
Created directory /home/jcartus/scratch/Butadien_21.mol.dir/AIMD
AIMD will take 400 BOMD steps Velocity Verlet integration
Time step = 20.00000 a.u. ( = 0.48378 fs)
Total simulation time requested = 193.511 fs
Integral threshold = 10**(-11)
SCF convergence threshold = 10**(-8)
Generating viewable xyz trajectory,
 file (in Angstroms) at AIMD/View.xyz
Choosing nuclear velocities from Maxwell-Boltzmann
Velocities sampled from Maxwell-Boltzmann at T = 400.0 K
sqrt(kT/m) and (vx,vy,vz) for each atom:
  1   2.4064e-04  -2.91e-04  -3.23e-04  -8.13e-05 
  2   2.4064e-04   9.02e-05  -9.03e-05  -3.55e-04 
  3   8.3036e-04   9.76e-04  -1.54e-03  -8.49e-04 
  4   8.3036e-04   7.05e-04   1.24e-03   7.77e-05 
  5   2.4064e-04   3.17e-04  -1.88e-05   4.70e-06 
  6   2.4064e-04   2.25e-04  -7.20e-05  -1.36e-04 
  7   8.3036e-04   6.97e-04  -1.39e-03  -9.80e-04 
  8   8.3036e-04   1.25e-06   6.16e-04  -8.34e-04 
  9   8.3036e-04   1.01e-03   7.29e-04  -1.31e-05 
 10   8.3036e-04  -1.01e-04   1.68e-03  -9.36e-04 
T(nuclear) = 0.02013383 a.u.
v(c.o.m.) = (  1.3705e-04,  -8.7040e-05,  -1.9189e-04)
T(c.o.m.) = 3.11224e-03 a.u.
kT/2 = 0.000633 a.u.
Tx   = 0.005396 a.u.
Ty   = 0.010092 a.u.
Tz   = 0.004646 a.u.
Mean velocities (a.u.):   3.6303e-04   8.2976e-05  -4.1020e-04
Removing c.o.m. velocity
T(nuclear) = 0.01876370 a.u.
v(c.o.m.) = ( -2.9299e-20,  -4.5075e-21,   1.1269e-20)
T(c.o.m.) = 4.95432e-35 a.u.
kT   = 0.001267 a.u. = 0.79 kcal/mol
Tx   = 0.003638 a.u. = 2.28 kcal/mol
Ty   = 0.012071 a.u. = 7.57 kcal/mol
Tz   = 0.003054 a.u. = 1.92 kcal/mol
Initial velocities in m/s
  1     -7.7245e+02     -6.2105e+02      1.1251e+01 
  2      6.2240e+01     -1.1169e+02     -5.8707e+02 
  3      5.2639e+02     -2.3515e+03      3.9337e+02 
  4     -6.6332e+01      3.7309e+03      2.4211e+03 
  5      5.5863e+02      4.4738e+01      1.9935e+02 
  6      3.5744e+02     -7.1643e+01     -1.0853e+02 
  7     -8.2006e+01     -2.0193e+03      1.0634e+02 
  8     -1.6051e+03      2.3689e+03      4.2682e+02 
  9      6.0364e+02      2.6163e+03      2.2226e+03 
 10     -1.8277e+03      4.6995e+03      2.0447e+02 
----------------------------------------------------------------------------
       Nuclear coordinates (Angst) and velocities (a.u.)
----------------------------------------------------------------------------
             x        y        z            v_x         v_y        v_z
----------------------------------------------------------------------------
1      C    3.0440  -0.4561   0.5622    -3.5309e-04  -2.8388e-04   5.1429e-06
2      C    3.3763  -0.0382  -1.0237     2.8450e-05  -5.1052e-05  -2.6835e-04
3      H    3.7032  -1.0098   0.8095     2.4061e-04  -1.0749e-03   1.7981e-04
4      H    2.3969  -0.1058   1.1581    -3.0321e-05   1.7054e-03   1.1067e-03
5      C    4.6399  -1.0321  -1.0308     2.5535e-04   2.0450e-05   9.1123e-05
6      C    5.2486  -1.9420  -0.0492     1.6339e-04  -3.2748e-05  -4.9608e-05
7      H    5.9585  -2.0144  -0.9242    -3.7485e-05  -9.2302e-04   4.8608e-05
8      H    5.3585  -2.2360   1.1023    -7.3369e-04   1.0828e-03   1.9510e-04
9      H    2.8265   0.6978  -1.6750     2.7593e-04   1.1959e-03   1.0160e-03
10     H    5.2774  -0.8152  -2.3638    -8.3546e-04   2.1482e-03   9.3462e-05
----------------------------------------------------------------------------
Write nuclear velocities every 1 time steps

TIME STEP #1 (t = 0.000 a.u. = 0.00000 fs)
--------------------------------------
 Instantaneous Temperature = 395.0 K
 ----------------------------------------------------------------
             Standard Nuclear Orientation (Angstroms)
    I     Atom           X                Y                Z
 ----------------------------------------------------------------
    1      C       3.0399670223    -0.4581690422     0.5602655074
    2      C       3.3766076159    -0.0393145382    -1.0251943114
    3      H       3.7159335349    -1.0306667033     0.8168268066
    4      H       2.3894139773    -0.0838797330     1.1757464087
    5      C       4.6426994823    -1.0317256232    -1.0301151901
    6      C       5.2503669118    -1.9418281371    -0.0504227943
    7      H       5.9602503449    -2.0277693805    -0.9192841810
    8      H       5.3497345307    -2.2232119201     1.0995386201
    9      H       2.8308141102     0.7088635780    -1.6635876307
   10      H       5.2654539297    -0.7946292256    -2.3552083874
 ----------------------------------------------------------------
 Nuclear Repulsion Energy =    99.3591120295 hartrees
 There are       15 alpha and       15 beta electrons

                       Distance Matrix (Angstroms)
             C (  1)   C (  2)   H (  3)   H (  4)   C (  5)   C (  6)
   C (  2)  1.674052
   H (  3)  0.922230  2.119189
   H (  4)  0.970633  2.412608  1.668797
   C (  5)  2.329599  1.608693  2.066420  3.292648
   C (  6)  2.731310  2.842659  1.984143  3.624985  1.468790
   H (  7)  3.630533  3.261959  3.007533  4.573700  1.655393  1.125274
   H (  8)  2.956555  3.630031  2.042400  3.653224  2.540662  1.188050
   H (  9)  2.520165  1.124814  3.156241  2.980787  2.591113  3.934807
   H ( 10)  3.683203  2.430469  3.538154  4.609166  1.483209  2.574554
             H (  7)   H (  8)   H (  9)
   H (  8)  2.118153
   H (  9)  4.223330  4.751515
   H ( 10)  2.016248  3.739416  2.943858

 Applying Cartesian multipole field
    Component          Value
    ---------          -----
     (2,0,0)        1.00000E-12
     (0,2,0)        2.00000E-11
     (0,0,2)       -3.00000E-11
 Nucleus-field energy     =     0.0000000020 hartrees
 ENuRep (before)= 99.3591120295
 ENucField = 0.0000000020
 ENuRep (after) = 99.3591120315
 Job number = 2, Threshold = 1.00E-11
Integral type ranges set in mkLRange.C for JobNum: 2  <1-6|1-6>
Symmetry turned off temporarily
Symmetry turned back on
 Job number = 11, Threshold = 1.00E-11
Integral type ranges set in mkLRange.C for JobNum: 11  <1-6|7-7>
 Smallest overlap matrix eigenvalue = 1.86E-01
 Multipole matrices computed through 2nd order
 Guess from superposition of atomic densities
 Warning:  Energy on first SCF cycle will be non-variational
 SAD guess density has 30.000000 electrons
 SCF convergence criterion is 10**(-8)
 A restricted Hartree-Fock SCF calculation will be
 performed using Pulay DIIS extrapolation
 SCF converges when DIIS error is below 1.0E-08
Finding J and K together
 Job number = 22, Threshold = 1.00E-11
Integral type ranges set in mkLRange.C for JobNum: 22  <1-6|1-6>
 MakeJK  time:  CPU       0.14 s  wall       0.14 s
Fock build time:  0.14 s (CPU) 0.14 s (wall)
DIIS Errors:  Max 1.16E+00 RMS 1.68E-01

Current DIIS subspace size = 1
REM_GRID_RESTART_DIIS = 0

 ---------------------------------------
  Cycle       Energy         DIIS Error
 ---------------------------------------
    1    -151.7058999392      1.68E-01  00000
Finding J and K together
 Job number = 22, Threshold = 1.00E-11
Integral type ranges set in mkLRange.C for JobNum: 22  <1-6|1-6>
 MakeJK  time:  CPU       0.19 s  wall       0.21 s
Fock build time:  0.19 s (CPU) 0.21 s (wall)
DIIS Errors:  Max 9.28E-02 RMS 1.66E-02

Current DIIS subspace size = 2
REM_GRID_RESTART_DIIS = 0

    2    -152.5412440272      1.66E-02  00000
Finding J and K together
 Job number = 22, Threshold = 1.00E-11
Integral type ranges set in mkLRange.C for JobNum: 22  <1-6|1-6>
 MakeJK  time:  CPU       0.20 s  wall       0.31 s
Fock build time:  0.20 s (CPU) 0.31 s (wall)
DIIS Errors:  Max 7.40E-02 RMS 1.16E-02

Current DIIS subspace size = 3
REM_GRID_RESTART_DIIS = 0

    3    -152.5733115994      1.16E-02  00000
Finding J and K together
 Job number = 22, Threshold = 1.00E-11
Integral type ranges set in mkLRange.C for JobNum: 22  <1-6|1-6>
 MakeJK  time:  CPU       0.20 s  wall       0.21 s
Fock build time:  0.20 s (CPU) 0.21 s (wall)
DIIS Errors:  Max 1.89E-02 RMS 3.66E-03

Current DIIS subspace size = 4
REM_GRID_RESTART_DIIS = 0

    4    -152.5867879135      3.66E-03  00000
Finding J and K together
 Job number = 22, Threshold = 1.00E-11
Integral type ranges set in mkLRange.C for JobNum: 22  <1-6|1-6>
 MakeJK  time:  CPU       0.18 s  wall       0.18 s
Fock build time:  0.18 s (CPU) 0.18 s (wall)
DIIS Errors:  Max 3.15E-03 RMS 5.22E-04

Current DIIS subspace size = 5
REM_GRID_RESTART_DIIS = 0

    5    -152.5888659161      5.22E-04  00000
Finding J and K together
 Job number = 22, Threshold = 1.00E-11
Integral type ranges set in mkLRange.C for JobNum: 22  <1-6|1-6>
 MakeJK  time:  CPU       0.19 s  wall       0.20 s
Fock build time:  0.19 s (CPU) 0.20 s (wall)
DIIS Errors:  Max 1.70E-03 RMS 2.15E-04

Current DIIS subspace size = 6
REM_GRID_RESTART_DIIS = 0

    6    -152.5889148816      2.15E-04  00000
Finding J and K together
 Job number = 22, Threshold = 1.00E-11
Integral type ranges set in mkLRange.C for JobNum: 22  <1-6|1-6>
 MakeJK  time:  CPU       0.19 s  wall       0.21 s
Fock build time:  0.19 s (CPU) 0.21 s (wall)
DIIS Errors:  Max 1.16E-03 RMS 1.16E-04

Current DIIS subspace size = 7
REM_GRID_RESTART_DIIS = 0

    7    -152.5889293944      1.16E-04  00000
Finding J and K together
 Job number = 22, Threshold = 1.00E-11
Integral type ranges set in mkLRange.C for JobNum: 22  <1-6|1-6>
 MakeJK  time:  CPU       0.19 s  wall       0.21 s
Fock build time:  0.19 s (CPU) 0.21 s (wall)
DIIS Errors:  Max 6.70E-04 RMS 6.37E-05

Current DIIS subspace size = 8
REM_GRID_RESTART_DIIS = 0

    8    -152.5889323689      6.37E-05  00000
Finding J and K together
 Job number = 22, Threshold = 1.00E-11
Integral type ranges set in mkLRange.C for JobNum: 22  <1-6|1-6>
 MakeJK  time:  CPU       0.19 s  wall       0.21 s
Fock build time:  0.19 s (CPU) 0.21 s (wall)
DIIS Errors:  Max 2.98E-04 RMS 2.76E-05

Current DIIS subspace size = 9
REM_GRID_RESTART_DIIS = 0

    9    -152.5889341462      2.76E-05  00000
Finding J and K together
 Job number = 22, Threshold = 1.00E-11
Integral type ranges set in mkLRange.C for JobNum: 22  <1-6|1-6>
 MakeJK  time:  CPU       0.19 s  wall       0.20 s
Fock build time:  0.19 s (CPU) 0.20 s (wall)
DIIS Errors:  Max 6.65E-05 RMS 8.87E-06

Current DIIS subspace size = 10
REM_GRID_RESTART_DIIS = 0

   10    -152.5889345080      8.87E-06  00000
Finding J and K together
 Job number = 22, Threshold = 1.00E-11
Integral type ranges set in mkLRange.C for JobNum: 22  <1-6|1-6>
 MakeJK  time:  CPU       0.19 s  wall       0.20 s
Fock build time:  0.20 s (CPU) 0.20 s (wall)
DIIS Errors:  Max 1.27E-05 RMS 2.32E-06

Current DIIS subspace size = 11
REM_GRID_RESTART_DIIS = 0

   11    -152.5889345422      2.32E-06  00000
Finding J and K together
 Job number = 22, Threshold = 1.00E-11
Integral type ranges set in mkLRange.C for JobNum: 22  <1-6|1-6>
 MakeJK  time:  CPU       0.20 s  wall       0.23 s
Fock build time:  0.20 s (CPU) 0.23 s (wall)
DIIS Errors:  Max 3.18E-06 RMS 5.77E-07

Current DIIS subspace size = 12
REM_GRID_RESTART_DIIS = 0

   12    -152.5889345440      5.77E-07  00000
Finding J and K together
 Job number = 22, Threshold = 1.00E-11
Integral type ranges set in mkLRange.C for JobNum: 22  <1-6|1-6>
 MakeJK  time:  CPU       0.19 s  wall       0.20 s
Fock build time:  0.19 s (CPU) 0.20 s (wall)
DIIS Errors:  Max 4.99E-07 RMS 1.15E-07

Current DIIS subspace size = 13
REM_GRID_RESTART_DIIS = 0

   13    -152.5889345441      1.15E-07  00000
Finding J and K together
 Job number = 22, Threshold = 1.00E-11
Integral type ranges set in mkLRange.C for JobNum: 22  <1-6|1-6>
 MakeJK  time:  CPU       0.16 s  wall       0.19 s
Fock build time:  0.17 s (CPU) 0.19 s (wall)
DIIS Errors:  Max 1.06E-07 RMS 1.75E-08

Current DIIS subspace size = 14
REM_GRID_RESTART_DIIS = 0

   14    -152.5889345442      1.75E-08  00000
Finding J and K together
 Job number = 22, Threshold = 1.00E-11
Integral type ranges set in mkLRange.C for JobNum: 22  <1-6|1-6>
 MakeJK  time:  CPU       0.16 s  wall       0.19 s
Fock build time:  0.16 s (CPU) 0.19 s (wall)
DIIS Errors:  Max 5.35E-08 RMS 6.02E-09

Current DIIS subspace size = 15
REM_GRID_RESTART_DIIS = 0

   15    -152.5889345442      6.02E-09  00000 Convergence criterion met
 ---------------------------------------
 SCF time:  CPU 2.79 s  wall 3.13 s
 SCF   energy in the final basis set = -152.58893454
 Total energy in the final basis set = -152.58893454
drvman_main.C: 73: calling DrvMan  Calculating analytic gradient of the SCF energy
drvman.C : 218: Calculating analytic gradient of the SCF energy
drvman.C: 244: calling SCF_Grad for normal SCF gradient
 Job number = 111, Threshold = 1.00E-11
Integral type ranges set in mkLRange.C for JobNum: 11  <1-6|7-7>
 Warning:  Cost of integrals step H3 set to -1535522378
 Warning:  Retrieved cost of -1535522378 for integrals step H3
 Warning:  Retrieved cost of -1535522378 for integrals step H3
Finding J and K together
 ML is being used
 Job number = 122, Threshold = 1.00E-11
Integral type ranges set in mkLRange.C for JobNum: 22  <1-6|1-6>
 MakeJK  time:  CPU       0.48 s  wall       0.55 s
 Gradient of SCF Energy
            1           2           3           4           5           6
    1   0.0443053   0.0050739  -0.1337987   0.0953534  -0.0174584   0.0023641
    2  -0.1725062   0.1190908   0.1296326  -0.0533787  -0.0328948  -0.0994820
    3   0.3684951  -0.2889287  -0.0795812  -0.0794364   0.0653601   0.1501606
            7           8           9          10
    1  -0.0371918   0.0155436  -0.0242822   0.0500909
    2   0.0606534  -0.0203307   0.0276681   0.0415476
    3  -0.0750174   0.0813451  -0.0101895  -0.1322077
 Max gradient component =       3.685E-01
 RMS gradient           =       1.160E-01
drvman.C: 248: out of SCF_Grad for normal SCF gradient
 Gradient time:  CPU 0.50 s  wall 0.57 s
 ------------------------------------------------------------------------------
                     drvman        : Timing summary (seconds)
 ------------------------------------------------------------------------------
     job step          cpu (% of tot)      sys (% of tot)     wall (% of tot)
 ------------------------------------------------------------------------------
 ------------------------------------------------------------------------------
   Grand Totals     0.4960E+00          0.0000E+00          0.5748E+00
 ------------------------------------------------------------------------------
drvman_main.C: 77: out of DrvMan  Time for this dynamics step: 3.3 s (CPU) 3.7 s (wall)

TIME STEP #2 (t = 20.000 a.u. = 0.48378 fs)
--------------------------------------
 Instantaneous Temperature = 875.4 K
 ----------------------------------------------------------------
             Standard Nuclear Orientation (Angstroms)
    I     Atom           X                Y                Z
 ----------------------------------------------------------------
    1      C       3.0355153233    -0.4585688221     0.5547852595
    2      C       3.3768361341    -0.0415814627    -1.0238527944
    3      H       3.7441028499    -1.0664291833     0.8333126636
    4      H       2.3709816933    -0.0558393740     1.2025251849
    5      C       4.6456679014    -1.0310529383    -1.0300928391
    6      C       5.2520709475    -1.9407336332    -0.0531286230
    7      H       5.9662657877    -2.0480970152    -0.9056851341
    8      H       5.3391881885    -2.2081114103     1.0874349629
    9      H       2.8379359300     0.7167493375    -1.6509912694
   10      H       5.2477765767    -0.7788554144    -2.3313343015
 ----------------------------------------------------------------
 Nuclear Repulsion Energy =    99.1875375774 hartrees
 There are       15 alpha and       15 beta electrons

                       Distance Matrix (Angstroms)
             C (  1)   C (  2)   H (  3)   H (  4)   C (  5)   C (  6)
   C (  2)  1.668076
   H (  3)  0.974253  2.152733
   H (  4)  1.011614  2.443093  1.744440
   C (  5)  2.330701  1.609045  2.070350  3.333140
   C (  6)  2.734866  2.839998  1.955544  3.664719  1.466186
   H (  7)  3.639900  3.277989  2.987607  4.619492  1.671477  1.117342
   H (  8)  2.941347  3.605858  1.977957  3.668211  2.519992  1.174719
   H (  9)  2.507162  1.121954  3.189456  2.992908  2.590024  3.929813
   H ( 10)  3.650530  2.398645  3.515498  4.613769  1.455805  2.557382
             H (  7)   H (  8)   H (  9)
   H (  8)  2.095557
   H (  9)  4.241026  4.723352
   H ( 10)  2.039529  3.706631  2.916682

 Applying Cartesian multipole field
    Component          Value
    ---------          -----
     (2,0,0)        1.00000E-12
     (0,2,0)        2.00000E-11
     (0,0,2)       -3.00000E-11
 Nucleus-field energy     =     0.0000000020 hartrees
 ENuRep (before)= 99.1875375774
 ENucField = 0.0000000020
 ENuRep (after) = 99.1875375794
 Job number = 2, Threshold = 1.00E-11
Integral type ranges set in mkLRange.C for JobNum: 2  <1-6|1-6>
Symmetry turned off temporarily
Symmetry turned back on
 Job number = 11, Threshold = 1.00E-11
Integral type ranges set in mkLRange.C for JobNum: 11  <1-6|7-7>
 Smallest overlap matrix eigenvalue = 2.11E-01
 Multipole matrices computed through 2nd order
 Guess from superposition of atomic densities
 Warning:  Energy on first SCF cycle will be non-variational
 SAD guess density has 30.000000 electrons
 SCF convergence criterion is 10**(-8)
 A restricted Hartree-Fock SCF calculation will be
 performed using Pulay DIIS extrapolation
 SCF converges when DIIS error is below 1.0E-08
Finding J and K together
 Job number = 22, Threshold = 1.00E-11
Integral type ranges set in mkLRange.C for JobNum: 22  <1-6|1-6>
 MakeJK  time:  CPU       0.16 s  wall       0.17 s
Fock build time:  0.16 s (CPU) 0.17 s (wall)
DIIS Errors:  Max 1.05E+00 RMS 1.64E-01

Current DIIS subspace size = 1
REM_GRID_RESTART_DIIS = 0

 ---------------------------------------
  Cycle       Energy         DIIS Error
 ---------------------------------------
    1    -151.6575376881      1.64E-01  00000
Finding J and K together
 Job number = 22, Threshold = 1.00E-11
Integral type ranges set in mkLRange.C for JobNum: 22  <1-6|1-6>
 MakeJK  time:  CPU       0.20 s  wall       0.20 s
Fock build time:  0.20 s (CPU) 0.20 s (wall)
DIIS Errors:  Max 8.46E-02 RMS 1.55E-02

Current DIIS subspace size = 2
REM_GRID_RESTART_DIIS = 0

    2    -152.5875364147      1.55E-02  00000
Finding J and K together
 Job number = 22, Threshold = 1.00E-11
Integral type ranges set in mkLRange.C for JobNum: 22  <1-6|1-6>
 MakeJK  time:  CPU       0.19 s  wall       0.19 s
Fock build time:  0.19 s (CPU) 0.19 s (wall)
DIIS Errors:  Max 5.91E-02 RMS 9.67E-03

Current DIIS subspace size = 3
REM_GRID_RESTART_DIIS = 0

    3    -152.6191043212      9.67E-03  00000
Finding J and K together
 Job number = 22, Threshold = 1.00E-11
Integral type ranges set in mkLRange.C for JobNum: 22  <1-6|1-6>
 MakeJK  time:  CPU       0.16 s  wall       0.16 s
Fock build time:  0.16 s (CPU) 0.16 s (wall)
DIIS Errors:  Max 2.02E-02 RMS 3.86E-03

Current DIIS subspace size = 4
REM_GRID_RESTART_DIIS = 0

    4    -152.6282567460      3.86E-03  00000
Finding J and K together
 Job number = 22, Threshold = 1.00E-11
Integral type ranges set in mkLRange.C for JobNum: 22  <1-6|1-6>
 MakeJK  time:  CPU       0.15 s  wall       0.15 s
Fock build time:  0.15 s (CPU) 0.15 s (wall)
DIIS Errors:  Max 3.48E-03 RMS 5.30E-04

Current DIIS subspace size = 5
REM_GRID_RESTART_DIIS = 0

    5    -152.6304095258      5.30E-04  00000
Finding J and K together
 Job number = 22, Threshold = 1.00E-11
Integral type ranges set in mkLRange.C for JobNum: 22  <1-6|1-6>
 MakeJK  time:  CPU       0.17 s  wall       0.17 s
Fock build time:  0.17 s (CPU) 0.17 s (wall)
DIIS Errors:  Max 1.51E-03 RMS 2.31E-04

Current DIIS subspace size = 6
REM_GRID_RESTART_DIIS = 0

    6    -152.6304550899      2.31E-04  00000
Finding J and K together
 Job number = 22, Threshold = 1.00E-11
Integral type ranges set in mkLRange.C for JobNum: 22  <1-6|1-6>
 MakeJK  time:  CPU       0.17 s  wall       0.17 s
Fock build time:  0.17 s (CPU) 0.17 s (wall)
DIIS Errors:  Max 1.32E-03 RMS 1.40E-04

Current DIIS subspace size = 7
REM_GRID_RESTART_DIIS = 0

    7    -152.6304690152      1.40E-04  00000
Finding J and K together
 Job number = 22, Threshold = 1.00E-11
Integral type ranges set in mkLRange.C for JobNum: 22  <1-6|1-6>
 MakeJK  time:  CPU       0.14 s  wall       0.14 s
Fock build time:  0.14 s (CPU) 0.14 s (wall)
DIIS Errors:  Max 6.85E-04 RMS 6.34E-05

Current DIIS subspace size = 8
REM_GRID_RESTART_DIIS = 0

    8    -152.6304737474      6.34E-05  00000
Finding J and K together
 Job number = 22, Threshold = 1.00E-11
Integral type ranges set in mkLRange.C for JobNum: 22  <1-6|1-6>
 MakeJK  time:  CPU       0.14 s  wall       0.15 s
Fock build time:  0.14 s (CPU) 0.15 s (wall)
DIIS Errors:  Max 2.77E-04 RMS 2.60E-05

Current DIIS subspace size = 9
REM_GRID_RESTART_DIIS = 0

    9    -152.6304755479      2.60E-05  00000
Finding J and K together
 Job number = 22, Threshold = 1.00E-11
Integral type ranges set in mkLRange.C for JobNum: 22  <1-6|1-6>
 MakeJK  time:  CPU       0.19 s  wall       0.19 s
Fock build time:  0.19 s (CPU) 0.20 s (wall)
DIIS Errors:  Max 5.95E-05 RMS 8.34E-06

Current DIIS subspace size = 10
REM_GRID_RESTART_DIIS = 0

   10    -152.6304758754      8.34E-06  00000
Finding J and K together
 Job number = 22, Threshold = 1.00E-11
Integral type ranges set in mkLRange.C for JobNum: 22  <1-6|1-6>
 MakeJK  time:  CPU       0.19 s  wall       0.19 s
Fock build time:  0.19 s (CPU) 0.19 s (wall)
DIIS Errors:  Max 1.15E-05 RMS 2.11E-06

Current DIIS subspace size = 11
REM_GRID_RESTART_DIIS = 0

   11    -152.6304759046      2.11E-06  00000
Finding J and K together
 Job number = 22, Threshold = 1.00E-11
Integral type ranges set in mkLRange.C for JobNum: 22  <1-6|1-6>
 MakeJK  time:  CPU       0.19 s  wall       0.19 s
Fock build time:  0.19 s (CPU) 0.19 s (wall)
DIIS Errors:  Max 2.97E-06 RMS 5.35E-07

Current DIIS subspace size = 12
REM_GRID_RESTART_DIIS = 0

   12    -152.6304759061      5.35E-07  00000
Finding J and K together
 Job number = 22, Threshold = 1.00E-11
Integral type ranges set in mkLRange.C for JobNum: 22  <1-6|1-6>
 MakeJK  time:  CPU       0.19 s  wall       0.19 s
Fock build time:  0.19 s (CPU) 0.19 s (wall)
DIIS Errors:  Max 4.56E-07 RMS 1.00E-07

Current DIIS subspace size = 13
REM_GRID_RESTART_DIIS = 0

   13    -152.6304759062      1.00E-07  00000
Finding J and K together
 Job number = 22, Threshold = 1.00E-11
Integral type ranges set in mkLRange.C for JobNum: 22  <1-6|1-6>
 MakeJK  time:  CPU       0.19 s  wall       0.19 s
Fock build time:  0.19 s (CPU) 0.19 s (wall)
DIIS Errors:  Max 8.99E-08 RMS 1.49E-08

Current DIIS subspace size = 14
REM_GRID_RESTART_DIIS = 0

   14    -152.6304759062      1.49E-08  00000
Finding J and K together
 Job number = 22, Threshold = 1.00E-11
Integral type ranges set in mkLRange.C for JobNum: 22  <1-6|1-6>
 MakeJK  time:  CPU       0.16 s  wall       0.16 s
Fock build time:  0.16 s (CPU) 0.16 s (wall)
DIIS Errors:  Max 4.54E-08 RMS 5.08E-09

Current DIIS subspace size = 15
REM_GRID_RESTART_DIIS = 0

   15    -152.6304759062      5.08E-09  00000 Convergence criterion met
 ---------------------------------------
 SCF time:  CPU 2.61 s  wall 2.65 s
 SCF   energy in the final basis set = -152.63047591
 Total energy in the final basis set = -152.63047591
drvman_main.C: 73: calling DrvMan  Calculating analytic gradient of the SCF energy
drvman.C : 218: Calculating analytic gradient of the SCF energy
drvman.C: 244: calling SCF_Grad for normal SCF gradient
 Job number = 111, Threshold = 1.00E-11
Integral type ranges set in mkLRange.C for JobNum: 11  <1-6|7-7>
Finding J and K together
 ML is being used
 Job number = 122, Threshold = 1.00E-11
Integral type ranges set in mkLRange.C for JobNum: 22  <1-6|1-6>
 MakeJK  time:  CPU       0.49 s  wall       0.54 s
 Gradient of SCF Energy
            1           2           3           4           5           6
    1   0.0157223   0.0044161  -0.0645745   0.0560691  -0.0152276   0.0045005
    2  -0.1379376   0.1198609   0.0728077  -0.0315286  -0.0366936  -0.0998073
    3   0.3071729  -0.2901101  -0.0558363  -0.0443837   0.0659374   0.1512656
            7           8           9          10
    1  -0.0372501   0.0135798  -0.0235782   0.0463426
    2   0.0582483  -0.0171277   0.0271617   0.0450161
    3  -0.0704686   0.0750701  -0.0085478  -0.1300995
 Max gradient component =       3.072E-01
 RMS gradient           =       1.013E-01
drvman.C: 248: out of SCF_Grad for normal SCF gradient
 Gradient time:  CPU 0.51 s  wall 0.56 s
 ------------------------------------------------------------------------------
                     drvman        : Timing summary (seconds)
 ------------------------------------------------------------------------------
     job step          cpu (% of tot)      sys (% of tot)     wall (% of tot)
 ------------------------------------------------------------------------------
 ------------------------------------------------------------------------------
   Grand Totals     0.5080E+00          0.2000E-05          0.5595E+00
 ------------------------------------------------------------------------------
drvman_main.C: 77: out of DrvMan  Time for this dynamics step: 3.1 s (CPU) 3.2 s (wall)

TIME STEP #3 (t = 40.000 a.u. = 0.96755 fs)
--------------------------------------
 Instantaneous Temperature = 1727.7 K
 ----------------------------------------------------------------
             Standard Nuclear Orientation (Angstroms)
    I     Atom           X                Y                Z
 ----------------------------------------------------------------
    1      C       3.0309114871    -0.4576338448     0.5463326427
    2      C       3.3770219195    -0.0450082247    -1.0197040176
    3      H       3.7797121946    -1.1105802902     0.8562317676
    4      H       2.3460893415    -0.0241664129     1.2344176902
    5      C       4.6487836711    -1.0300251867    -1.0307085337
    6      C       5.2537314342    -1.9386733410    -0.0572981785
    7      H       5.9765730452    -2.0751358006    -0.8839669605
    8      H       5.3270772294    -2.1910375112     1.0666820081
    9      H       2.8477743434     0.7215056295    -1.6374100597
   10      H       5.2247598010    -0.7682681944    -2.2924706349
 ----------------------------------------------------------------
 Nuclear Repulsion Energy =    99.1114192334 hartrees
 There are       15 alpha and       15 beta electrons

                       Distance Matrix (Angstroms)
             C (  1)   C (  2)   H (  3)   H (  4)   C (  5)   C (  6)
   C (  2)  1.656057
   H (  3)  1.040711  2.194707
   H (  4)  1.063173  2.478774  1.838095
   C (  5)  2.330708  1.608651  2.079019  3.383039
   C (  6)  2.738389  2.834472  1.921720  3.713253  1.462577
   H (  7)  3.652258  3.301137  2.963926  4.677012  1.696117  1.106573
   H (  8)  2.923667  3.572277  1.898951  3.689140  2.491401  1.154296
   H (  9)  2.488502  1.117679  3.231609  3.009171  2.584489  3.919430
   H ( 10)  3.601148  2.357366  3.481331  4.612957  1.411492  2.523229
             H (  7)   H (  8)   H (  9)
   H (  8)  2.059201
   H (  9)  4.263597  4.684225
   H ( 10)  2.063252  3.649472  2.880727

 Applying Cartesian multipole field
    Component          Value
    ---------          -----
     (2,0,0)        1.00000E-12
     (0,2,0)        2.00000E-11
     (0,0,2)       -3.00000E-11
 Nucleus-field energy     =     0.0000000021 hartrees
 ENuRep (before)= 99.1114192334
 ENucField = 0.0000000021
 ENuRep (after) = 99.1114192355
 Job number = 2, Threshold = 1.00E-11
Integral type ranges set in mkLRange.C for JobNum: 2  <1-6|1-6>
Symmetry turned off temporarily
Symmetry turned back on
 Job number = 11, Threshold = 1.00E-11
Integral type ranges set in mkLRange.C for JobNum: 11  <1-6|7-7>
 Smallest overlap matrix eigenvalue = 2.42E-01
 Multipole matrices computed through 2nd order
 Guess from superposition of atomic densities
 Warning:  Energy on first SCF cycle will be non-variational
 SAD guess density has 30.000000 electrons
 SCF convergence criterion is 10**(-8)
 A restricted Hartree-Fock SCF calculation will be
 performed using Pulay DIIS extrapolation
 SCF converges when DIIS error is below 1.0E-08
Finding J and K together
 Job number = 22, Threshold = 1.00E-11
Integral type ranges set in mkLRange.C for JobNum: 22  <1-6|1-6>
 MakeJK  time:  CPU       0.15 s  wall       0.17 s
Fock build time:  0.15 s (CPU) 0.17 s (wall)
DIIS Errors:  Max 9.23E-01 RMS 1.62E-01

Current DIIS subspace size = 1
REM_GRID_RESTART_DIIS = 0

 ---------------------------------------
  Cycle       Energy         DIIS Error
 ---------------------------------------
    1    -151.6144353048      1.62E-01  00000
Finding J and K together
 Job number = 22, Threshold = 1.00E-11
Integral type ranges set in mkLRange.C for JobNum: 22  <1-6|1-6>
 MakeJK  time:  CPU       0.19 s  wall       0.20 s
Fock build time:  0.19 s (CPU) 0.20 s (wall)
DIIS Errors:  Max 7.57E-02 RMS 1.45E-02

Current DIIS subspace size = 2
REM_GRID_RESTART_DIIS = 0

    2    -152.6338418079      1.45E-02  00000
Finding J and K together
 Job number = 22, Threshold = 1.00E-11
Integral type ranges set in mkLRange.C for JobNum: 22  <1-6|1-6>
 MakeJK  time:  CPU       0.19 s  wall       0.20 s
Fock build time:  0.19 s (CPU) 0.20 s (wall)
DIIS Errors:  Max 4.30E-02 RMS 7.73E-03

Current DIIS subspace size = 3
REM_GRID_RESTART_DIIS = 0

    3    -152.6647817569      7.73E-03  00000
Finding J and K together
 Job number = 22, Threshold = 1.00E-11
Integral type ranges set in mkLRange.C for JobNum: 22  <1-6|1-6>
 MakeJK  time:  CPU       0.14 s  wall       0.14 s
Fock build time:  0.14 s (CPU) 0.14 s (wall)
DIIS Errors:  Max 2.07E-02 RMS 3.99E-03

Current DIIS subspace size = 4
REM_GRID_RESTART_DIIS = 0

    4    -152.6703467045      3.99E-03  00000
Finding J and K together
 Job number = 22, Threshold = 1.00E-11
Integral type ranges set in mkLRange.C for JobNum: 22  <1-6|1-6>
 MakeJK  time:  CPU       0.16 s  wall       0.16 s
Fock build time:  0.16 s (CPU) 0.16 s (wall)
DIIS Errors:  Max 3.77E-03 RMS 5.51E-04

Current DIIS subspace size = 5
REM_GRID_RESTART_DIIS = 0

    5    -152.6724784451      5.51E-04  00000
Finding J and K together
 Job number = 22, Threshold = 1.00E-11
Integral type ranges set in mkLRange.C for JobNum: 22  <1-6|1-6>
 MakeJK  time:  CPU       0.17 s  wall       0.18 s
Fock build time:  0.17 s (CPU) 0.18 s (wall)
DIIS Errors:  Max 1.28E-03 RMS 2.36E-04

Current DIIS subspace size = 6
REM_GRID_RESTART_DIIS = 0

    6    -152.6725215151      2.36E-04  00000
Finding J and K together
 Job number = 22, Threshold = 1.00E-11
Integral type ranges set in mkLRange.C for JobNum: 22  <1-6|1-6>
 MakeJK  time:  CPU       0.15 s  wall       0.15 s
Fock build time:  0.15 s (CPU) 0.15 s (wall)
DIIS Errors:  Max 1.23E-03 RMS 1.31E-04

Current DIIS subspace size = 7
REM_GRID_RESTART_DIIS = 0

    7    -152.6725359970      1.31E-04  00000
Finding J and K together
 Job number = 22, Threshold = 1.00E-11
Integral type ranges set in mkLRange.C for JobNum: 22  <1-6|1-6>
 MakeJK  time:  CPU       0.12 s  wall       0.12 s
Fock build time:  0.12 s (CPU) 0.12 s (wall)
DIIS Errors:  Max 6.03E-04 RMS 5.69E-05

Current DIIS subspace size = 8
REM_GRID_RESTART_DIIS = 0

    8    -152.6725406790      5.69E-05  00000
Finding J and K together
 Job number = 22, Threshold = 1.00E-11
Integral type ranges set in mkLRange.C for JobNum: 22  <1-6|1-6>
 MakeJK  time:  CPU       0.14 s  wall       0.15 s
Fock build time:  0.14 s (CPU) 0.15 s (wall)
DIIS Errors:  Max 2.42E-04 RMS 2.33E-05

Current DIIS subspace size = 9
REM_GRID_RESTART_DIIS = 0

    9    -152.6725420770      2.33E-05  00000
Finding J and K together
 Job number = 22, Threshold = 1.00E-11
Integral type ranges set in mkLRange.C for JobNum: 22  <1-6|1-6>
 MakeJK  time:  CPU       0.18 s  wall       0.18 s
Fock build time:  0.18 s (CPU) 0.18 s (wall)
DIIS Errors:  Max 5.10E-05 RMS 7.33E-06

Current DIIS subspace size = 10
REM_GRID_RESTART_DIIS = 0

   10    -152.6725423337      7.33E-06  00000
Finding J and K together
 Job number = 22, Threshold = 1.00E-11
Integral type ranges set in mkLRange.C for JobNum: 22  <1-6|1-6>
 MakeJK  time:  CPU       0.16 s  wall       0.16 s
Fock build time:  0.16 s (CPU) 0.16 s (wall)
DIIS Errors:  Max 1.00E-05 RMS 1.83E-06

Current DIIS subspace size = 11
REM_GRID_RESTART_DIIS = 0

   11    -152.6725423556      1.83E-06  00000
Finding J and K together
 Job number = 22, Threshold = 1.00E-11
Integral type ranges set in mkLRange.C for JobNum: 22  <1-6|1-6>
 MakeJK  time:  CPU       0.18 s  wall       0.18 s
Fock build time:  0.18 s (CPU) 0.19 s (wall)
DIIS Errors:  Max 2.66E-06 RMS 4.68E-07

Current DIIS subspace size = 12
REM_GRID_RESTART_DIIS = 0

   12    -152.6725423567      4.68E-07  00000
Finding J and K together
 Job number = 22, Threshold = 1.00E-11
Integral type ranges set in mkLRange.C for JobNum: 22  <1-6|1-6>
 MakeJK  time:  CPU       0.19 s  wall       0.19 s
Fock build time:  0.19 s (CPU) 0.19 s (wall)
DIIS Errors:  Max 4.04E-07 RMS 8.27E-08

Current DIIS subspace size = 13
REM_GRID_RESTART_DIIS = 0

   13    -152.6725423568      8.27E-08  00000
Finding J and K together
 Job number = 22, Threshold = 1.00E-11
Integral type ranges set in mkLRange.C for JobNum: 22  <1-6|1-6>
 MakeJK  time:  CPU       0.20 s  wall       0.19 s
Fock build time:  0.20 s (CPU) 0.20 s (wall)
DIIS Errors:  Max 6.55E-08 RMS 1.13E-08

Current DIIS subspace size = 14
REM_GRID_RESTART_DIIS = 0

   14    -152.6725423568      1.13E-08  00000
Finding J and K together
 Job number = 22, Threshold = 1.00E-11
Integral type ranges set in mkLRange.C for JobNum: 22  <1-6|1-6>
 MakeJK  time:  CPU       0.19 s  wall       0.19 s
Fock build time:  0.19 s (CPU) 0.19 s (wall)
DIIS Errors:  Max 2.85E-08 RMS 3.28E-09

Current DIIS subspace size = 15
REM_GRID_RESTART_DIIS = 0

   15    -152.6725423568      3.28E-09  00000 Convergence criterion met
 ---------------------------------------
 SCF time:  CPU 2.54 s  wall 2.59 s
 SCF   energy in the final basis set = -152.67254236
 Total energy in the final basis set = -152.67254236
drvman_main.C: 73: calling DrvMan  Calculating analytic gradient of the SCF energy
drvman.C : 218: Calculating analytic gradient of the SCF energy
drvman.C: 244: calling SCF_Grad for normal SCF gradient
 Job number = 111, Threshold = 1.00E-11
Integral type ranges set in mkLRange.C for JobNum: 11  <1-6|7-7>
Finding J and K together
 ML is being used
 Job number = 122, Threshold = 1.00E-11
Integral type ranges set in mkLRange.C for JobNum: 22  <1-6|1-6>
 MakeJK  time:  CPU       0.47 s  wall       0.48 s
 Gradient of SCF Energy
            1           2           3           4           5           6
    1  -0.0098269   0.0029812   0.0008446   0.0183527  -0.0130457   0.0070081
    2  -0.1062077   0.1208450   0.0177803  -0.0084841  -0.0392703  -0.1002385
    3   0.2427336  -0.2898462  -0.0316268  -0.0082325   0.0643663   0.1542109
            7           8           9          10
    1  -0.0369533   0.0114423  -0.0222460   0.0414428
    2   0.0547325  -0.0129062   0.0258441   0.0479049
    3  -0.0635757   0.0639063  -0.0066169  -0.1253189
 Max gradient component =       2.898E-01
 RMS gradient           =       9.021E-02
drvman.C: 248: out of SCF_Grad for normal SCF gradient
 Gradient time:  CPU 0.49 s  wall 0.50 s
 ------------------------------------------------------------------------------
                     drvman        : Timing summary (seconds)
 ------------------------------------------------------------------------------
     job step          cpu (% of tot)      sys (% of tot)     wall (% of tot)
 ------------------------------------------------------------------------------
 ------------------------------------------------------------------------------
   Grand Totals     0.4880E+00          0.1000E-05          0.5011E+00
 ------------------------------------------------------------------------------
drvman_main.C: 77: out of DrvMan  Time for this dynamics step: 3.1 s (CPU) 3.1 s (wall)

TIME STEP #4 (t = 60.000 a.u. = 1.45133 fs)
--------------------------------------
 Instantaneous Temperature = 2606.8 K
 ----------------------------------------------------------------
             Standard Nuclear Orientation (Angstroms)
    I     Atom           X                Y                Z
 ----------------------------------------------------------------
    1      C       3.0264027410    -0.4556711450     0.5355312063
    2      C       3.3771788568    -0.0496043470    -1.0127505342
    3      H       3.8152242235    -1.1567799718     0.8827947972
    4      H       2.3190824552     0.0084840530     1.2672587114
    5      C       4.6520256776    -1.0286174351    -1.0319470710
    6      C       5.2553241066    -1.9356430876    -0.0629599611
    7      H       5.9911379196    -2.1084806613    -0.8549238291
    8      H       5.3136479323    -2.1724766128     1.0385660147
    9      H       2.8601758575     0.7232842605    -1.6230664699
   10      H       5.1969681423    -0.7632003958    -2.2391682001
 ----------------------------------------------------------------
 Nuclear Repulsion Energy =    99.1954747405 hartrees
 There are       15 alpha and       15 beta electrons

                       Distance Matrix (Angstroms)
             C (  1)   C (  2)   H (  3)   H (  4)   C (  5)   C (  6)
   C (  2)  1.638631
   H (  3)  1.111029  2.238485
   H (  4)  1.118556  2.514236  1.934966
   C (  5)  2.329787  1.607504  2.093537  3.435775
   C (  6)  2.741642  2.826070  1.890758  3.764389  1.457944
   H (  7)  3.668078  3.331165  2.942788  4.740168  1.729353  1.094761
   H (  8)  2.903783  3.530496  1.816914  3.711645  2.456254  1.128207
   H (  9)  2.465180  1.112265  3.275072  3.026169  2.574744  3.903916
   H ( 10)  3.536225  2.307586  3.436681  4.601386  1.350848  2.472632
             H (  7)   H (  8)   H (  9)
   H (  8)  2.012062
   H (  9)  4.290904  4.635649
   H ( 10)  2.087251  3.569764  2.837220

 Applying Cartesian multipole field
    Component          Value
    ---------          -----
     (2,0,0)        1.00000E-12
     (0,2,0)        2.00000E-11
     (0,0,2)       -3.00000E-11
 Nucleus-field energy     =     0.0000000021 hartrees
 ENuRep (before)= 99.1954747405
 ENucField = 0.0000000021
 ENuRep (after) = 99.1954747426
 Job number = 2, Threshold = 1.00E-11
Integral type ranges set in mkLRange.C for JobNum: 2  <1-6|1-6>
Symmetry turned off temporarily
Symmetry turned back on
 Job number = 11, Threshold = 1.00E-11
Integral type ranges set in mkLRange.C for JobNum: 11  <1-6|7-7>
 Smallest overlap matrix eigenvalue = 2.44E-01
 Multipole matrices computed through 2nd order
 Guess from superposition of atomic densities
 Warning:  Energy on first SCF cycle will be non-variational
 SAD guess density has 30.000000 electrons
 SCF convergence criterion is 10**(-8)
 A restricted Hartree-Fock SCF calculation will be
 performed using Pulay DIIS extrapolation
 SCF converges when DIIS error is below 1.0E-08
Finding J and K together
 Job number = 22, Threshold = 1.00E-11
Integral type ranges set in mkLRange.C for JobNum: 22  <1-6|1-6>
 MakeJK  time:  CPU       0.15 s  wall       0.15 s
Fock build time:  0.15 s (CPU) 0.15 s (wall)
DIIS Errors:  Max 8.83E-01 RMS 1.60E-01

Current DIIS subspace size = 1
REM_GRID_RESTART_DIIS = 0

 ---------------------------------------
  Cycle       Energy         DIIS Error
 ---------------------------------------
    1    -151.5959573595      1.60E-01  00000
Finding J and K together
 Job number = 22, Threshold = 1.00E-11
Integral type ranges set in mkLRange.C for JobNum: 22  <1-6|1-6>
 MakeJK  time:  CPU       0.18 s  wall       0.19 s
Fock build time:  0.18 s (CPU) 0.19 s (wall)
DIIS Errors:  Max 7.35E-02 RMS 1.39E-02

Current DIIS subspace size = 2
REM_GRID_RESTART_DIIS = 0

    2    -152.6724940545      1.39E-02  00000
Finding J and K together
 Job number = 22, Threshold = 1.00E-11
Integral type ranges set in mkLRange.C for JobNum: 22  <1-6|1-6>
 MakeJK  time:  CPU       0.19 s  wall       0.20 s
Fock build time:  0.19 s (CPU) 0.20 s (wall)
DIIS Errors:  Max 3.32E-02 RMS 6.26E-03

Current DIIS subspace size = 3
REM_GRID_RESTART_DIIS = 0

    3    -152.7027349804      6.26E-03  00000
Finding J and K together
 Job number = 22, Threshold = 1.00E-11
Integral type ranges set in mkLRange.C for JobNum: 22  <1-6|1-6>
 MakeJK  time:  CPU       0.19 s  wall       0.20 s
Fock build time:  0.19 s (CPU) 0.20 s (wall)
DIIS Errors:  Max 1.93E-02 RMS 3.86E-03

Current DIIS subspace size = 4
REM_GRID_RESTART_DIIS = 0

    4    -152.7063652148      3.86E-03  00000
Finding J and K together
 Job number = 22, Threshold = 1.00E-11
Integral type ranges set in mkLRange.C for JobNum: 22  <1-6|1-6>
 MakeJK  time:  CPU       0.19 s  wall       0.22 s
Fock build time:  0.19 s (CPU) 0.22 s (wall)
DIIS Errors:  Max 3.87E-03 RMS 5.52E-04

Current DIIS subspace size = 5
REM_GRID_RESTART_DIIS = 0

    5    -152.7082390277      5.52E-04  00000
Finding J and K together
 Job number = 22, Threshold = 1.00E-11
Integral type ranges set in mkLRange.C for JobNum: 22  <1-6|1-6>
 MakeJK  time:  CPU       0.19 s  wall       0.21 s
Fock build time:  0.19 s (CPU) 0.21 s (wall)
DIIS Errors:  Max 1.06E-03 RMS 2.20E-04

Current DIIS subspace size = 6
REM_GRID_RESTART_DIIS = 0

    6    -152.7082789817      2.20E-04  00000
Finding J and K together
 Job number = 22, Threshold = 1.00E-11
Integral type ranges set in mkLRange.C for JobNum: 22  <1-6|1-6>
 MakeJK  time:  CPU       0.15 s  wall       0.15 s
Fock build time:  0.15 s (CPU) 0.15 s (wall)
DIIS Errors:  Max 1.02E-03 RMS 1.10E-04

Current DIIS subspace size = 7
REM_GRID_RESTART_DIIS = 0

    7    -152.7082932866      1.10E-04  00000
Finding J and K together
 Job number = 22, Threshold = 1.00E-11
Integral type ranges set in mkLRange.C for JobNum: 22  <1-6|1-6>
 MakeJK  time:  CPU       0.15 s  wall       0.15 s
Fock build time:  0.15 s (CPU) 0.15 s (wall)
DIIS Errors:  Max 4.87E-04 RMS 4.73E-05

Current DIIS subspace size = 8
REM_GRID_RESTART_DIIS = 0

    8    -152.7082967087      4.73E-05  00000
Finding J and K together
 Job number = 22, Threshold = 1.00E-11
Integral type ranges set in mkLRange.C for JobNum: 22  <1-6|1-6>
 MakeJK  time:  CPU       0.15 s  wall       0.15 s
Fock build time:  0.15 s (CPU) 0.15 s (wall)
DIIS Errors:  Max 2.00E-04 RMS 1.98E-05

Current DIIS subspace size = 9
REM_GRID_RESTART_DIIS = 0

    9    -152.7082976184      1.98E-05  00000
Finding J and K together
 Job number = 22, Threshold = 1.00E-11
Integral type ranges set in mkLRange.C for JobNum: 22  <1-6|1-6>
 MakeJK  time:  CPU       0.15 s  wall       0.15 s
Fock build time:  0.15 s (CPU) 0.15 s (wall)
DIIS Errors:  Max 4.28E-05 RMS 6.11E-06

Current DIIS subspace size = 10
REM_GRID_RESTART_DIIS = 0

   10    -152.7082977944      6.11E-06  00000
Finding J and K together
 Job number = 22, Threshold = 1.00E-11
Integral type ranges set in mkLRange.C for JobNum: 22  <1-6|1-6>
 MakeJK  time:  CPU       0.14 s  wall       0.14 s
Fock build time:  0.14 s (CPU) 0.14 s (wall)
DIIS Errors:  Max 8.38E-06 RMS 1.53E-06

Current DIIS subspace size = 11
REM_GRID_RESTART_DIIS = 0

   11    -152.7082978094      1.53E-06  00000
Finding J and K together
 Job number = 22, Threshold = 1.00E-11
Integral type ranges set in mkLRange.C for JobNum: 22  <1-6|1-6>
 MakeJK  time:  CPU       0.14 s  wall       0.14 s
Fock build time:  0.14 s (CPU) 0.14 s (wall)
DIIS Errors:  Max 2.28E-06 RMS 3.89E-07

Current DIIS subspace size = 12
REM_GRID_RESTART_DIIS = 0

   12    -152.7082978101      3.89E-07  00000
Finding J and K together
 Job number = 22, Threshold = 1.00E-11
Integral type ranges set in mkLRange.C for JobNum: 22  <1-6|1-6>
 MakeJK  time:  CPU       0.14 s  wall       0.14 s
Fock build time:  0.14 s (CPU) 0.14 s (wall)
DIIS Errors:  Max 3.49E-07 RMS 6.58E-08

Current DIIS subspace size = 13
REM_GRID_RESTART_DIIS = 0

   13    -152.7082978102      6.58E-08  00000
Finding J and K together
 Job number = 22, Threshold = 1.00E-11
Integral type ranges set in mkLRange.C for JobNum: 22  <1-6|1-6>
 MakeJK  time:  CPU       0.16 s  wall       0.16 s
Fock build time:  0.16 s (CPU) 0.16 s (wall)
DIIS Errors:  Max 4.68E-08 RMS 8.62E-09

Current DIIS subspace size = 14
REM_GRID_RESTART_DIIS = 0

   14    -152.7082978102      8.62E-09  00000 Convergence criterion met
 ---------------------------------------
 SCF time:  CPU 2.30 s  wall 2.38 s
 SCF   energy in the final basis set = -152.70829781
 Total energy in the final basis set = -152.70829781
drvman_main.C: 73: calling DrvMan  Calculating analytic gradient of the SCF energy
drvman.C : 218: Calculating analytic gradient of the SCF energy
drvman.C: 244: calling SCF_Grad for normal SCF gradient
 Job number = 111, Threshold = 1.00E-11
Integral type ranges set in mkLRange.C for JobNum: 11  <1-6|7-7>
Finding J and K together
 ML is being used
 Job number = 122, Threshold = 1.00E-11
Integral type ranges set in mkLRange.C for JobNum: 22  <1-6|1-6>
 MakeJK  time:  CPU       0.46 s  wall       0.49 s
 Gradient of SCF Energy
            1           2           3           4           5           6
    1  -0.0264185   0.0009983   0.0498703  -0.0115417  -0.0101215   0.0097496
    2  -0.0831997   0.1217333  -0.0246417   0.0111316  -0.0396555  -0.1010757
    3   0.1858431  -0.2880480  -0.0112133   0.0227919   0.0581471   0.1598656
            7           8           9          10
    1  -0.0360103   0.0093899  -0.0203554   0.0344393
    2   0.0500920  -0.0077298   0.0237093   0.0496362
    3  -0.0548037   0.0473024  -0.0043607  -0.1155243
 Max gradient component =       2.880E-01
 RMS gradient           =       8.407E-02
drvman.C: 248: out of SCF_Grad for normal SCF gradient
 Gradient time:  CPU 0.48 s  wall 0.51 s
 ------------------------------------------------------------------------------
                     drvman        : Timing summary (seconds)
 ------------------------------------------------------------------------------
     job step          cpu (% of tot)      sys (% of tot)     wall (% of tot)
 ------------------------------------------------------------------------------
 ------------------------------------------------------------------------------
   Grand Totals     0.4800E+00          0.1000E-05          0.5122E+00
 ------------------------------------------------------------------------------
drvman_main.C: 77: out of DrvMan  Time for this dynamics step: 2.8 s (CPU) 2.9 s (wall)

TIME STEP #5 (t = 80.000 a.u. = 1.93511 fs)
--------------------------------------
 Instantaneous Temperature = 3361.7 K
 ----------------------------------------------------------------
             Standard Nuclear Orientation (Angstroms)
    I     Atom           X                Y                Z
 ----------------------------------------------------------------
    1      C       3.0221496345    -0.4529033606     0.5229314531
    2      C       3.3773261341    -0.0553784257    -1.0030097444
    3      H       3.8449903876    -1.2001405286     0.9106497761
    4      H       2.2934053660     0.0398519771     1.2974737345
    5      C       4.6553656248    -1.0268259552    -1.0337482701
    6      C       5.2568224366    -1.9316347717    -0.0701686886
    7      H       6.0098517702    -2.1475969383    -0.8195664195
    8      H       5.2991367607    -2.1530251176     1.0050000209
    9      H       2.8749226427     0.7223311913    -1.6082204537
   10      H       5.1652085146    -0.7638514920    -2.1725554915
 ----------------------------------------------------------------
 Nuclear Repulsion Energy =    99.4692222284 hartrees
 There are       15 alpha and       15 beta electrons

                       Distance Matrix (Angstroms)
             C (  1)   C (  2)   H (  3)   H (  4)   C (  5)   C (  6)
   C (  2)  1.616376
   H (  3)  1.177181  2.278439
   H (  4)  1.172089  2.544833  2.023519
   C (  5)  2.328097  1.605628  2.113630  3.485865
   C (  6)  2.744481  2.814789  1.868250  3.813010  1.452210
   H (  7)  3.687906  3.367673  2.928813  4.804036  1.771055  1.084108
   H (  8)  2.882269  3.482180  1.741101  3.732114  2.416456  1.098541
   H (  9)  2.438167  1.106129  3.313855  3.040888  2.561161  3.883630
   H ( 10)  3.457606  2.250843  3.382230  4.575401  1.275138  2.406687
             H (  7)   H (  8)   H (  9)
   H (  8)  1.958108
   H (  9)  4.322759  4.579673
   H ( 10)  2.111576  3.470533  2.787942

 Applying Cartesian multipole field
    Component          Value
    ---------          -----
     (2,0,0)        1.00000E-12
     (0,2,0)        2.00000E-11
     (0,0,2)       -3.00000E-11
 Nucleus-field energy     =     0.0000000022 hartrees
 ENuRep (before)= 99.4692222284
 ENucField = 0.0000000022
 ENuRep (after) = 99.4692222306
 Job number = 2, Threshold = 1.00E-11
Integral type ranges set in mkLRange.C for JobNum: 2  <1-6|1-6>
Symmetry turned off temporarily
Symmetry turned back on
 Job number = 11, Threshold = 1.00E-11
Integral type ranges set in mkLRange.C for JobNum: 11  <1-6|7-7>
 Smallest overlap matrix eigenvalue = 2.38E-01
 Multipole matrices computed through 2nd order
 Guess from superposition of atomic densities
 Warning:  Energy on first SCF cycle will be non-variational
 SAD guess density has 30.000000 electrons
 SCF convergence criterion is 10**(-8)
 A restricted Hartree-Fock SCF calculation will be
 performed using Pulay DIIS extrapolation
 SCF converges when DIIS error is below 1.0E-08
Finding J and K together
 Job number = 22, Threshold = 1.00E-11
Integral type ranges set in mkLRange.C for JobNum: 22  <1-6|1-6>
 MakeJK  time:  CPU       0.15 s  wall       0.15 s
Fock build time:  0.15 s (CPU) 0.15 s (wall)
DIIS Errors:  Max 9.00E-01 RMS 1.61E-01

Current DIIS subspace size = 1
REM_GRID_RESTART_DIIS = 0

 ---------------------------------------
  Cycle       Energy         DIIS Error
 ---------------------------------------
    1    -151.6146003080      1.61E-01  00000
Finding J and K together
 Job number = 22, Threshold = 1.00E-11
Integral type ranges set in mkLRange.C for JobNum: 22  <1-6|1-6>
 MakeJK  time:  CPU       0.19 s  wall       0.20 s
Fock build time:  0.19 s (CPU) 0.20 s (wall)
DIIS Errors:  Max 7.34E-02 RMS 1.35E-02

Current DIIS subspace size = 2
REM_GRID_RESTART_DIIS = 0

    2    -152.7038454417      1.35E-02  00000
Finding J and K together
 Job number = 22, Threshold = 1.00E-11
Integral type ranges set in mkLRange.C for JobNum: 22  <1-6|1-6>
 MakeJK  time:  CPU       0.18 s  wall       0.19 s
Fock build time:  0.18 s (CPU) 0.19 s (wall)
DIIS Errors:  Max 2.80E-02 RMS 5.36E-03

Current DIIS subspace size = 3
REM_GRID_RESTART_DIIS = 0

    3    -152.7334089022      5.36E-03  00000
Finding J and K together
 Job number = 22, Threshold = 1.00E-11
Integral type ranges set in mkLRange.C for JobNum: 22  <1-6|1-6>
 MakeJK  time:  CPU       0.14 s  wall       0.14 s
Fock build time:  0.14 s (CPU) 0.14 s (wall)
DIIS Errors:  Max 1.62E-02 RMS 3.47E-03

Current DIIS subspace size = 4
REM_GRID_RESTART_DIIS = 0

    4    -152.7363099764      3.47E-03  00000
Finding J and K together
 Job number = 22, Threshold = 1.00E-11
Integral type ranges set in mkLRange.C for JobNum: 22  <1-6|1-6>
 MakeJK  time:  CPU       0.17 s  wall       0.17 s
Fock build time:  0.17 s (CPU) 0.17 s (wall)
DIIS Errors:  Max 3.62E-03 RMS 5.12E-04

Current DIIS subspace size = 5
REM_GRID_RESTART_DIIS = 0

    5    -152.7377729781      5.12E-04  00000
Finding J and K together
 Job number = 22, Threshold = 1.00E-11
Integral type ranges set in mkLRange.C for JobNum: 22  <1-6|1-6>
 MakeJK  time:  CPU       0.15 s  wall       0.15 s
Fock build time:  0.15 s (CPU) 0.15 s (wall)
DIIS Errors:  Max 8.04E-04 RMS 1.95E-04

Current DIIS subspace size = 6
REM_GRID_RESTART_DIIS = 0

    6    -152.7378069538      1.95E-04  00000
Finding J and K together
 Job number = 22, Threshold = 1.00E-11
Integral type ranges set in mkLRange.C for JobNum: 22  <1-6|1-6>
 MakeJK  time:  CPU       0.14 s  wall       0.14 s
Fock build time:  0.14 s (CPU) 0.14 s (wall)
DIIS Errors:  Max 7.85E-04 RMS 8.73E-05

Current DIIS subspace size = 7
REM_GRID_RESTART_DIIS = 0

    7    -152.7378196324      8.73E-05  00000
Finding J and K together
 Job number = 22, Threshold = 1.00E-11
Integral type ranges set in mkLRange.C for JobNum: 22  <1-6|1-6>
 MakeJK  time:  CPU       0.14 s  wall       0.14 s
Fock build time:  0.14 s (CPU) 0.14 s (wall)
DIIS Errors:  Max 3.59E-04 RMS 3.59E-05

Current DIIS subspace size = 8
REM_GRID_RESTART_DIIS = 0

    8    -152.7378218096      3.59E-05  00000
Finding J and K together
 Job number = 22, Threshold = 1.00E-11
Integral type ranges set in mkLRange.C for JobNum: 22  <1-6|1-6>
 MakeJK  time:  CPU       0.18 s  wall       0.18 s
Fock build time:  0.18 s (CPU) 0.18 s (wall)
DIIS Errors:  Max 1.50E-04 RMS 1.55E-05

Current DIIS subspace size = 9
REM_GRID_RESTART_DIIS = 0

    9    -152.7378222992      1.55E-05  00000
Finding J and K together
 Job number = 22, Threshold = 1.00E-11
Integral type ranges set in mkLRange.C for JobNum: 22  <1-6|1-6>
 MakeJK  time:  CPU       0.18 s  wall       0.18 s
Fock build time:  0.18 s (CPU) 0.18 s (wall)
DIIS Errors:  Max 3.46E-05 RMS 4.79E-06

Current DIIS subspace size = 10
REM_GRID_RESTART_DIIS = 0

   10    -152.7378223992      4.79E-06  00000
Finding J and K together
 Job number = 22, Threshold = 1.00E-11
Integral type ranges set in mkLRange.C for JobNum: 22  <1-6|1-6>
 MakeJK  time:  CPU       0.17 s  wall       0.17 s
Fock build time:  0.17 s (CPU) 0.17 s (wall)
DIIS Errors:  Max 6.62E-06 RMS 1.20E-06

Current DIIS subspace size = 11
REM_GRID_RESTART_DIIS = 0

   11    -152.7378224083      1.20E-06  00000
Finding J and K together
 Job number = 22, Threshold = 1.00E-11
Integral type ranges set in mkLRange.C for JobNum: 22  <1-6|1-6>
 MakeJK  time:  CPU       0.19 s  wall       0.19 s
Fock build time:  0.19 s (CPU) 0.19 s (wall)
DIIS Errors:  Max 1.86E-06 RMS 3.10E-07

Current DIIS subspace size = 12
REM_GRID_RESTART_DIIS = 0

   12    -152.7378224087      3.10E-07  00000
Finding J and K together
 Job number = 22, Threshold = 1.00E-11
Integral type ranges set in mkLRange.C for JobNum: 22  <1-6|1-6>
 MakeJK  time:  CPU       0.19 s  wall       0.19 s
Fock build time:  0.19 s (CPU) 0.19 s (wall)
DIIS Errors:  Max 2.90E-07 RMS 5.04E-08

Current DIIS subspace size = 13
REM_GRID_RESTART_DIIS = 0

   13    -152.7378224088      5.04E-08  00000
Finding J and K together
 Job number = 22, Threshold = 1.00E-11
Integral type ranges set in mkLRange.C for JobNum: 22  <1-6|1-6>
 MakeJK  time:  CPU       0.19 s  wall       0.19 s
Fock build time:  0.19 s (CPU) 0.19 s (wall)
DIIS Errors:  Max 3.66E-08 RMS 7.02E-09

Current DIIS subspace size = 14
REM_GRID_RESTART_DIIS = 0

   14    -152.7378224088      7.02E-09  00000 Convergence criterion met
 ---------------------------------------
 SCF time:  CPU 2.39 s  wall 2.42 s
 SCF   energy in the final basis set = -152.73782241
 Total energy in the final basis set = -152.73782241
drvman_main.C: 73: calling DrvMan  Calculating analytic gradient of the SCF energy
drvman.C : 218: Calculating analytic gradient of the SCF energy
drvman.C: 244: calling SCF_Grad for normal SCF gradient
 Job number = 111, Threshold = 1.00E-11
Integral type ranges set in mkLRange.C for JobNum: 11  <1-6|7-7>
Finding J and K together
 ML is being used
 Job number = 122, Threshold = 1.00E-11
Integral type ranges set in mkLRange.C for JobNum: 22  <1-6|1-6>
 MakeJK  time:  CPU       0.50 s  wall       0.51 s
 Gradient of SCF Energy
            1           2           3           4           5           6
    1  -0.0353017  -0.0012844   0.0823471  -0.0326125  -0.0047621   0.0120183
    2  -0.0677680   0.1220963  -0.0538409   0.0258560  -0.0365357  -0.1022599
    3   0.1390353  -0.2844959   0.0047610   0.0468639   0.0430861   0.1692014
            7           8           9          10
    1  -0.0338782   0.0078489  -0.0180531   0.0236778
    2   0.0442998  -0.0018329   0.0208964   0.0490888
    3  -0.0450850   0.0250832  -0.0018342  -0.0966158
 Max gradient component =       2.845E-01
 RMS gradient           =       8.083E-02
drvman.C: 248: out of SCF_Grad for normal SCF gradient
 Gradient time:  CPU 0.52 s  wall 0.53 s
 ------------------------------------------------------------------------------
                     drvman        : Timing summary (seconds)
 ------------------------------------------------------------------------------
     job step          cpu (% of tot)      sys (% of tot)     wall (% of tot)
 ------------------------------------------------------------------------------
 ------------------------------------------------------------------------------
   Grand Totals     0.5200E+00          0.0000E+00          0.5275E+00
 ------------------------------------------------------------------------------
drvman_main.C: 77: out of DrvMan  Time for this dynamics step: 2.9 s (CPU) 3.0 s (wall)

TIME STEP #6 (t = 100.000 a.u. = 2.41888 fs)
--------------------------------------
 Instantaneous Temperature = 3985.0 K
 ----------------------------------------------------------------
             Standard Nuclear Orientation (Angstroms)
    I     Atom           X                Y                Z
 ----------------------------------------------------------------
    1      C       3.0182381263    -0.4494798173     0.5089863204
    2      C       3.3774858397    -0.0623339732    -0.9905160210
    3      H       3.8652688298    -1.2372977358     0.9379562143
    4      H       2.2714857669     0.0682408750     1.3222892782
    5      C       4.6587516528    -1.0246809367    -1.0359663930
    6      C       5.2582044713    -1.9266369349    -0.0790146992
    7      H       6.0324689428    -2.1918172727    -0.7790144848
    8      H       5.2837212642    -2.1333624451     0.9685440293
    9      H       2.8917494379     0.7189705166    -1.5931631032
   10      H       5.1307208240    -0.7701584189    -2.0948110766
 ----------------------------------------------------------------
 Nuclear Repulsion Energy =    99.9375313113 hartrees
 There are       15 alpha and       15 beta electrons

                       Distance Matrix (Angstroms)
             C (  1)   C (  2)   H (  3)   H (  4)   C (  5)   C (  6)
   C (  2)  1.589795
   H (  3)  1.233748  2.310298
   H (  4)  1.219482  2.566974  2.095778
   C (  5)  2.325730  1.603066  2.138034  3.529148
   C (  6)  2.746850  2.800636  1.857334  3.855344  1.445208
   H (  7)  3.712179  3.410039  2.925039  4.865011  1.820805  1.076943
   H (  8)  2.859907  3.429404  1.678057  3.747767  2.374410  1.068066
   H (  9)  2.408383  1.099800  3.343844  3.050908  2.544226  3.859015
   H ( 10)  3.368261  2.189593  3.319227  4.533731  1.186882  2.327473
             H (  7)   H (  8)   H (  9)
   H (  8)  1.902104
   H (  9)  4.358858  4.518814
   H ( 10)  2.136723  3.356468  2.735352

 Applying Cartesian multipole field
    Component          Value
    ---------          -----
     (2,0,0)        1.00000E-12
     (0,2,0)        2.00000E-11
     (0,0,2)       -3.00000E-11
 Nucleus-field energy     =     0.0000000022 hartrees
 ENuRep (before)= 99.9375313113
 ENucField = 0.0000000022
 ENuRep (after) = 99.9375313136
 Job number = 2, Threshold = 1.00E-11
Integral type ranges set in mkLRange.C for JobNum: 2  <1-6|1-6>
Symmetry turned off temporarily
Symmetry turned back on
 Job number = 11, Threshold = 1.00E-11
Integral type ranges set in mkLRange.C for JobNum: 11  <1-6|7-7>
 Smallest overlap matrix eigenvalue = 2.33E-01
 Multipole matrices computed through 2nd order
 Guess from superposition of atomic densities
 Warning:  Energy on first SCF cycle will be non-variational
 SAD guess density has 30.000000 electrons
 SCF convergence criterion is 10**(-8)
 A restricted Hartree-Fock SCF calculation will be
 performed using Pulay DIIS extrapolation
 SCF converges when DIIS error is below 1.0E-08
Finding J and K together
 Job number = 22, Threshold = 1.00E-11
Integral type ranges set in mkLRange.C for JobNum: 22  <1-6|1-6>
 MakeJK  time:  CPU       0.15 s  wall       0.15 s
Fock build time:  0.15 s (CPU) 0.15 s (wall)
DIIS Errors:  Max 9.13E-01 RMS 1.64E-01

Current DIIS subspace size = 1
REM_GRID_RESTART_DIIS = 0

 ---------------------------------------
  Cycle       Energy         DIIS Error
 ---------------------------------------
    1    -151.6747068953      1.64E-01  00000
Finding J and K together
 Job number = 22, Threshold = 1.00E-11
Integral type ranges set in mkLRange.C for JobNum: 22  <1-6|1-6>
 MakeJK  time:  CPU       0.19 s  wall       0.20 s
Fock build time:  0.19 s (CPU) 0.20 s (wall)
DIIS Errors:  Max 7.23E-02 RMS 1.33E-02

Current DIIS subspace size = 2
REM_GRID_RESTART_DIIS = 0

    2    -152.7291122283      1.33E-02  00000
Finding J and K together
 Job number = 22, Threshold = 1.00E-11
Integral type ranges set in mkLRange.C for JobNum: 22  <1-6|1-6>
 MakeJK  time:  CPU       0.19 s  wall       0.20 s
Fock build time:  0.19 s (CPU) 0.20 s (wall)
DIIS Errors:  Max 2.49E-02 RMS 4.84E-03

Current DIIS subspace size = 3
REM_GRID_RESTART_DIIS = 0

    3    -152.7580901487      4.84E-03  00000
Finding J and K together
 Job number = 22, Threshold = 1.00E-11
Integral type ranges set in mkLRange.C for JobNum: 22  <1-6|1-6>
 MakeJK  time:  CPU       0.20 s  wall       0.21 s
Fock build time:  0.20 s (CPU) 0.21 s (wall)
DIIS Errors:  Max 1.50E-02 RMS 3.04E-03

Current DIIS subspace size = 4
REM_GRID_RESTART_DIIS = 0

    4    -152.7607477328      3.04E-03  00000
Finding J and K together
 Job number = 22, Threshold = 1.00E-11
Integral type ranges set in mkLRange.C for JobNum: 22  <1-6|1-6>
 MakeJK  time:  CPU       0.19 s  wall       0.19 s
Fock build time:  0.19 s (CPU) 0.19 s (wall)
DIIS Errors:  Max 3.06E-03 RMS 4.40E-04

Current DIIS subspace size = 5
REM_GRID_RESTART_DIIS = 0

    5    -152.7618500650      4.40E-04  00000
Finding J and K together
 Job number = 22, Threshold = 1.00E-11
Integral type ranges set in mkLRange.C for JobNum: 22  <1-6|1-6>
 MakeJK  time:  CPU       0.20 s  wall       0.20 s
Fock build time:  0.20 s (CPU) 0.20 s (wall)
DIIS Errors:  Max 7.12E-04 RMS 1.72E-04

Current DIIS subspace size = 6
[...]
drvman_main.C: 77: out of DrvMan  Time for this dynamics step: 1.6 s (CPU) 1.6 s (wall)

TIME STEP #399 (t = 7960.000 a.u. = 192.54319 fs)
--------------------------------------
 Instantaneous Temperature = 4401.9 K
 ----------------------------------------------------------------
             Standard Nuclear Orientation (Angstroms)
    I     Atom           X                Y                Z
 ----------------------------------------------------------------
    1      C       2.3376147170     0.0627074673    -0.0609303227
    2      C       3.3770332827    -0.6705328402    -0.0888683551
    3      H       1.9006901144     0.6398286263     0.8334734331
    4      H       1.7973666203     0.5903740462    -0.9482147968
    5      C       4.9601559108    -1.5929484262    -0.0985972382
    6      C       5.7102971499    -1.3964901049    -1.1143876543
    7      H       6.5621185212    -1.7574809750    -1.4766622661
    8      H       5.7867742071    -0.7339705594    -2.0315469182
    9      H       3.3186909253    -0.5230674272    -1.0589355736
   10      H       5.2474748422    -2.1640264328     0.6607507040
 ----------------------------------------------------------------
 Nuclear Repulsion Energy =    99.8715169699 hartrees
 There are       15 alpha and       15 beta electrons

                       Distance Matrix (Angstroms)
             C (  1)   C (  2)   H (  3)   H (  4)   C (  5)   C (  6)
   C (  2)  1.272326
   H (  3)  1.150622  2.178842
   H (  4)  1.165150  2.196294  1.785367
   C (  5)  3.101667  1.832272  3.900562  3.935986
   C (  6)  3.822828  2.650061  4.738551  4.391613  1.277943
   H (  7)  4.812880  3.640357  5.728240  5.338028  2.119533  0.993558
   H (  8)  4.051509  3.095945  5.019693  4.340837  2.270999  1.134003
   H (  9)  1.517121  0.982945  2.635197  1.888502  2.182041  2.546708
   H ( 10)  3.734495  2.508187  4.369486  4.698802  0.992619  1.988576
             H (  7)   H (  8)   H (  9)
   H (  8)  1.398796
   H (  9)  3.495439  2.661182
   H ( 10)  2.542066  3.095863  3.061090

 Applying Cartesian multipole field
    Component          Value
    ---------          -----
     (2,0,0)        1.00000E-12
     (0,2,0)        2.00000E-11
     (0,0,2)       -3.00000E-11
 Nucleus-field energy     =     0.0000000030 hartrees
 ENuRep (before)= 99.8715169699
 ENucField = 0.0000000030
 ENuRep (after) = 99.8715169728
 Job number = 2, Threshold = 1.00E-11
Integral type ranges set in mkLRange.C for JobNum: 2  <1-6|1-6>
Symmetry turned off temporarily
Symmetry turned back on
 Job number = 11, Threshold = 1.00E-11
Integral type ranges set in mkLRange.C for JobNum: 11  <1-6|7-7>
 Smallest overlap matrix eigenvalue = 1.55E-01
 Multipole matrices computed through 2nd order
 Extrapolating the Fock matrix using 12 points and a 6th-order polynomial
 Alpha Fock matrix extrapolation
 Skip SCF guess (diagonalize extrapolated Fock matrix instead)
 SCF convergence criterion is 10**(-8)
 A restricted Hartree-Fock SCF calculation will be
 performed using Pulay DIIS extrapolation
 SCF converges when DIIS error is below 1.0E-08
Extrapolated Fock matrix used in lieu of Fock build
Fock build time:  0.00 s (CPU) 0.00 s (wall)
DIIS Errors:  Max 7.55E-02 RMS 1.03E-02

Current DIIS subspace size = 1
REM_GRID_RESTART_DIIS = 0

 ---------------------------------------
  Cycle       Energy         DIIS Error
 ---------------------------------------
    1    -304.2076020025      1.03E-02  00000
Finding J and K together
 Job number = 22, Threshold = 1.00E-11
Integral type ranges set in mkLRange.C for JobNum: 22  <1-6|1-6>
 MakeJK  time:  CPU       0.12 s  wall       0.12 s
Fock build time:  0.12 s (CPU) 0.12 s (wall)
DIIS Errors:  Max 3.24E-02 RMS 2.87E-03

Current DIIS subspace size = 2
REM_GRID_RESTART_DIIS = 0

    2    -152.7442593847      2.87E-03  00000
Finding J and K together
 Job number = 22, Threshold = 1.00E-11
Integral type ranges set in mkLRange.C for JobNum: 22  <1-6|1-6>
 MakeJK  time:  CPU       0.12 s  wall       0.12 s
Fock build time:  0.12 s (CPU) 0.12 s (wall)
DIIS Errors:  Max 5.66E-03 RMS 5.14E-04

Current DIIS subspace size = 3
REM_GRID_RESTART_DIIS = 0

    3    -152.7443895672      5.14E-04  00000
Finding J and K together
 Job number = 22, Threshold = 1.00E-11
Integral type ranges set in mkLRange.C for JobNum: 22  <1-6|1-6>
 MakeJK  time:  CPU       0.14 s  wall       0.15 s
Fock build time:  0.14 s (CPU) 0.15 s (wall)
DIIS Errors:  Max 4.70E-04 RMS 6.70E-05

Current DIIS subspace size = 4
REM_GRID_RESTART_DIIS = 0

    4    -152.7443946924      6.70E-05  00000
Finding J and K together
 Job number = 22, Threshold = 1.00E-11
Integral type ranges set in mkLRange.C for JobNum: 22  <1-6|1-6>
 MakeJK  time:  CPU       0.15 s  wall       0.15 s
Fock build time:  0.15 s (CPU) 0.15 s (wall)
DIIS Errors:  Max 5.96E-05 RMS 9.07E-06

Current DIIS subspace size = 5
REM_GRID_RESTART_DIIS = 0

    5    -152.7443951205      9.07E-06  00000
Finding J and K together
 Job number = 22, Threshold = 1.00E-11
Integral type ranges set in mkLRange.C for JobNum: 22  <1-6|1-6>
 MakeJK  time:  CPU       0.13 s  wall       0.13 s
Fock build time:  0.13 s (CPU) 0.13 s (wall)
DIIS Errors:  Max 1.22E-05 RMS 1.90E-06

Current DIIS subspace size = 6
REM_GRID_RESTART_DIIS = 0

    6    -152.7443951400      1.90E-06  00000
Finding J and K together
 Job number = 22, Threshold = 1.00E-11
Integral type ranges set in mkLRange.C for JobNum: 22  <1-6|1-6>
 MakeJK  time:  CPU       0.12 s  wall       0.12 s
Fock build time:  0.12 s (CPU) 0.12 s (wall)
DIIS Errors:  Max 3.81E-06 RMS 8.31E-07

Current DIIS subspace size = 7
REM_GRID_RESTART_DIIS = 0

    7    -152.7443951413      8.31E-07  00000
Finding J and K together
 Job number = 22, Threshold = 1.00E-11
Integral type ranges set in mkLRange.C for JobNum: 22  <1-6|1-6>
 MakeJK  time:  CPU       0.12 s  wall       0.12 s
Fock build time:  0.12 s (CPU) 0.12 s (wall)
DIIS Errors:  Max 1.16E-06 RMS 2.44E-07

Current DIIS subspace size = 8
REM_GRID_RESTART_DIIS = 0

    8    -152.7443951415      2.44E-07  00000
Finding J and K together
 Job number = 22, Threshold = 1.00E-11
Integral type ranges set in mkLRange.C for JobNum: 22  <1-6|1-6>
 MakeJK  time:  CPU       0.13 s  wall       0.13 s
Fock build time:  0.13 s (CPU) 0.13 s (wall)
DIIS Errors:  Max 2.57E-07 RMS 4.43E-08

Current DIIS subspace size = 9
REM_GRID_RESTART_DIIS = 0

    9    -152.7443951416      4.43E-08  00000
Finding J and K together
 Job number = 22, Threshold = 1.00E-11
Integral type ranges set in mkLRange.C for JobNum: 22  <1-6|1-6>
 MakeJK  time:  CPU       0.12 s  wall       0.12 s
Fock build time:  0.12 s (CPU) 0.12 s (wall)
DIIS Errors:  Max 8.11E-08 RMS 1.19E-08

Current DIIS subspace size = 10
REM_GRID_RESTART_DIIS = 0

   10    -152.7443951416      1.19E-08  00000
Finding J and K together
 Job number = 22, Threshold = 1.00E-11
Integral type ranges set in mkLRange.C for JobNum: 22  <1-6|1-6>
 MakeJK  time:  CPU       0.12 s  wall       0.12 s
Fock build time:  0.12 s (CPU) 0.12 s (wall)
DIIS Errors:  Max 2.11E-08 RMS 3.36E-09

Current DIIS subspace size = 11
REM_GRID_RESTART_DIIS = 0

   11    -152.7443951416      3.36E-09  00000 Convergence criterion met
 ---------------------------------------
 SCF time:  CPU 1.28 s  wall 1.30 s
 SCF   energy in the final basis set = -152.74439514
 Total energy in the final basis set = -152.74439514
drvman_main.C: 73: calling DrvMan  Calculating analytic gradient of the SCF energy
drvman.C : 218: Calculating analytic gradient of the SCF energy
drvman.C: 244: calling SCF_Grad for normal SCF gradient
 Job number = 111, Threshold = 1.00E-11
Integral type ranges set in mkLRange.C for JobNum: 11  <1-6|7-7>
Finding J and K together
 ML is being used
 Job number = 122, Threshold = 1.00E-11
Integral type ranges set in mkLRange.C for JobNum: 22  <1-6|1-6>
 MakeJK  time:  CPU       0.45 s  wall       0.45 s
 Gradient of SCF Energy
            1           2           3           4           5           6
    1   0.1289068  -0.1433014  -0.0115076  -0.0383777   0.1463457   0.0138677
    2  -0.1486885   0.0842939   0.0423669   0.0456468  -0.1261611  -0.0811393
    3  -0.1210360   0.0144848   0.0195158  -0.0267890   0.0285467   0.0932445
            7           8           9          10
    1  -0.1027402   0.0733536  -0.0499629  -0.0165839
    2   0.0892392  -0.0124577   0.0386773   0.0682224
    3  -0.0298083  -0.0377141   0.1457937  -0.0862381
 Max gradient component =       1.487E-01
 RMS gradient           =       8.275E-02
drvman.C: 248: out of SCF_Grad for normal SCF gradient
 Gradient time:  CPU 0.46 s  wall 0.46 s
 ------------------------------------------------------------------------------
                     drvman        : Timing summary (seconds)
 ------------------------------------------------------------------------------
     job step          cpu (% of tot)      sys (% of tot)     wall (% of tot)
 ------------------------------------------------------------------------------
 ------------------------------------------------------------------------------
   Grand Totals     0.4600E+00          0.1000E-05          0.4635E+00
 ------------------------------------------------------------------------------
drvman_main.C: 77: out of DrvMan  Time for this dynamics step: 1.8 s (CPU) 1.8 s (wall)

TIME STEP #400 (t = 7980.000 a.u. = 193.02697 fs)
--------------------------------------
 Instantaneous Temperature = 4130.3 K
 ----------------------------------------------------------------
             Standard Nuclear Orientation (Angstroms)
    I     Atom           X                Y                Z
 ----------------------------------------------------------------
    1      C       2.3454658422     0.0533288391    -0.0595884392
    2      C       3.3754756885    -0.6668697791    -0.0891701288
    3      H       1.9371513946     0.6222786585     0.7736263967
    4      H       1.8187515465     0.5984176161    -0.9462553272
    5      C       4.9683590885    -1.5913075215    -0.1067508797
    6      C       5.6961938470    -1.3975753694    -1.1113283919
    7      H       6.5491212170    -1.7399837560    -1.4407076285
    8      H       5.7854837656    -0.7148892144    -1.9558834205
    9      H       3.2694368264    -0.4880337241    -1.0683220201
   10      H       5.2484862877    -2.1646942397     0.6646798328
 ----------------------------------------------------------------
 Nuclear Repulsion Energy =   100.8165092313 hartrees
 There are       15 alpha and       15 beta electrons

                       Distance Matrix (Angstroms)
             C (  1)   C (  2)   H (  3)   H (  4)   C (  5)   C (  6)
   C (  2)  1.257172
   H (  3)  1.088426  2.115443
   H (  4)  1.166502  2.181499  1.724117
   C (  5)  3.096227  1.841785  3.855288  3.926792
   C (  6)  3.799823  2.639028  4.665111  4.364149  1.255568
   H (  7)  4.774325  3.612513  5.635053  5.299906  2.073730  0.976329
   H (  8)  4.002476  3.048781  4.903866  4.298731  2.203428  1.089636
   H (  9)  1.471169  1.000982  2.529931  1.816525  2.242358  2.591962
   H ( 10)  3.724476  2.513948  4.329437  4.689667  1.001174  1.985729
             H (  7)   H (  8)   H (  9)
   H (  8)  1.378175
   H (  9)  3.530210  2.677633
   H ( 10)  2.510913  3.042639  3.119475

 Applying Cartesian multipole field
    Component          Value
    ---------          -----
     (2,0,0)        1.00000E-12
     (0,2,0)        2.00000E-11
     (0,0,2)       -3.00000E-11
 Nucleus-field energy     =     0.0000000030 hartrees
 ENuRep (before)= 100.8165092313
 ENucField = 0.0000000030
 ENuRep (after) = 100.8165092343
 Job number = 2, Threshold = 1.00E-11
Integral type ranges set in mkLRange.C for JobNum: 2  <1-6|1-6>
Symmetry turned off temporarily
Symmetry turned back on
 Job number = 11, Threshold = 1.00E-11
Integral type ranges set in mkLRange.C for JobNum: 11  <1-6|7-7>
 Smallest overlap matrix eigenvalue = 1.51E-01
 Multipole matrices computed through 2nd order
 Extrapolating the Fock matrix using 12 points and a 6th-order polynomial
 Alpha Fock matrix extrapolation
 Skip SCF guess (diagonalize extrapolated Fock matrix instead)
 SCF convergence criterion is 10**(-8)
 A restricted Hartree-Fock SCF calculation will be
 performed using Pulay DIIS extrapolation
 SCF converges when DIIS error is below 1.0E-08
Extrapolated Fock matrix used in lieu of Fock build
Fock build time:  0.00 s (CPU) 0.00 s (wall)
DIIS Errors:  Max 8.53E-02 RMS 1.08E-02

Current DIIS subspace size = 1
REM_GRID_RESTART_DIIS = 0

 ---------------------------------------
  Cycle       Energy         DIIS Error
 ---------------------------------------
    1    -304.8555626427      1.08E-02  00000
Finding J and K together
 Job number = 22, Threshold = 1.00E-11
Integral type ranges set in mkLRange.C for JobNum: 22  <1-6|1-6>
 MakeJK  time:  CPU       0.19 s  wall       0.19 s
Fock build time:  0.19 s (CPU) 0.19 s (wall)
DIIS Errors:  Max 2.79E-02 RMS 2.70E-03

Current DIIS subspace size = 2
REM_GRID_RESTART_DIIS = 0

    2    -152.7334419284      2.70E-03  00000
Finding J and K together
 Job number = 22, Threshold = 1.00E-11
Integral type ranges set in mkLRange.C for JobNum: 22  <1-6|1-6>
 MakeJK  time:  CPU       0.18 s  wall       0.19 s
Fock build time:  0.19 s (CPU) 0.19 s (wall)
DIIS Errors:  Max 4.13E-03 RMS 4.29E-04

Current DIIS subspace size = 3
REM_GRID_RESTART_DIIS = 0

    3    -152.7335732425      4.29E-04  00000
Finding J and K together
 Job number = 22, Threshold = 1.00E-11
Integral type ranges set in mkLRange.C for JobNum: 22  <1-6|1-6>
 MakeJK  time:  CPU       0.18 s  wall       0.19 s
Fock build time:  0.18 s (CPU) 0.19 s (wall)
DIIS Errors:  Max 2.22E-04 RMS 3.76E-05

Current DIIS subspace size = 4
REM_GRID_RESTART_DIIS = 0

    4    -152.7335794211      3.76E-05  00000
Finding J and K together
 Job number = 22, Threshold = 1.00E-11
Integral type ranges set in mkLRange.C for JobNum: 22  <1-6|1-6>
 MakeJK  time:  CPU       0.15 s  wall       0.15 s
Fock build time:  0.15 s (CPU) 0.15 s (wall)
DIIS Errors:  Max 9.55E-05 RMS 1.83E-05

Current DIIS subspace size = 5
REM_GRID_RESTART_DIIS = 0

    5    -152.7335796967      1.83E-05  00000
Finding J and K together
 Job number = 22, Threshold = 1.00E-11
Integral type ranges set in mkLRange.C for JobNum: 22  <1-6|1-6>
 MakeJK  time:  CPU       0.12 s  wall       0.12 s
Fock build time:  0.12 s (CPU) 0.12 s (wall)
DIIS Errors:  Max 1.52E-05 RMS 2.90E-06

Current DIIS subspace size = 6
REM_GRID_RESTART_DIIS = 0

    6    -152.7335797550      2.90E-06  00000
Finding J and K together
 Job number = 22, Threshold = 1.00E-11
Integral type ranges set in mkLRange.C for JobNum: 22  <1-6|1-6>
 MakeJK  time:  CPU       0.13 s  wall       0.13 s
Fock build time:  0.13 s (CPU) 0.13 s (wall)
DIIS Errors:  Max 3.38E-06 RMS 7.45E-07

Current DIIS subspace size = 7
REM_GRID_RESTART_DIIS = 0

    7    -152.7335797582      7.45E-07  00000
Finding J and K together
 Job number = 22, Threshold = 1.00E-11
Integral type ranges set in mkLRange.C for JobNum: 22  <1-6|1-6>
 MakeJK  time:  CPU       0.19 s  wall       0.19 s
Fock build time:  0.19 s (CPU) 0.19 s (wall)
DIIS Errors:  Max 1.35E-06 RMS 2.60E-07

Current DIIS subspace size = 8
REM_GRID_RESTART_DIIS = 0

    8    -152.7335797583      2.60E-07  00000
Finding J and K together
 Job number = 22, Threshold = 1.00E-11
Integral type ranges set in mkLRange.C for JobNum: 22  <1-6|1-6>
 MakeJK  time:  CPU       0.18 s  wall       0.18 s
Fock build time:  0.18 s (CPU) 0.19 s (wall)
DIIS Errors:  Max 4.17E-07 RMS 1.04E-07

Current DIIS subspace size = 9
REM_GRID_RESTART_DIIS = 0

    9    -152.7335797584      1.04E-07  00000
Finding J and K together
 Job number = 22, Threshold = 1.00E-11
Integral type ranges set in mkLRange.C for JobNum: 22  <1-6|1-6>
 MakeJK  time:  CPU       0.11 s  wall       0.11 s
Fock build time:  0.11 s (CPU) 0.11 s (wall)
DIIS Errors:  Max 1.20E-07 RMS 2.27E-08

Current DIIS subspace size = 10
REM_GRID_RESTART_DIIS = 0

   10    -152.7335797584      2.27E-08  00000
Finding J and K together
 Job number = 22, Threshold = 1.00E-11
Integral type ranges set in mkLRange.C for JobNum: 22  <1-6|1-6>
 MakeJK  time:  CPU       0.10 s  wall       0.10 s
Fock build time:  0.10 s (CPU) 0.10 s (wall)
DIIS Errors:  Max 3.33E-08 RMS 4.98E-09

Current DIIS subspace size = 11
REM_GRID_RESTART_DIIS = 0

   11    -152.7335797584      4.98E-09  00000 Convergence criterion met
 ---------------------------------------
 SCF time:  CPU 1.55 s  wall 1.58 s
 SCF   energy in the final basis set = -152.73357976
 Total energy in the final basis set = -152.73357976
drvman_main.C: 73: calling DrvMan  Calculating analytic gradient of the SCF energy
drvman.C : 218: Calculating analytic gradient of the SCF energy
drvman.C: 244: calling SCF_Grad for normal SCF gradient
 Job number = 111, Threshold = 1.00E-11
Integral type ranges set in mkLRange.C for JobNum: 11  <1-6|7-7>
Finding J and K together
 ML is being used
 Job number = 122, Threshold = 1.00E-11
Integral type ranges set in mkLRange.C for JobNum: 22  <1-6|1-6>
 MakeJK  time:  CPU       0.29 s  wall       0.28 s
 Gradient of SCF Energy
            1           2           3           4           5           6
    1   0.1407211  -0.1673686   0.0080561  -0.0353590   0.1728221   0.0054732
    2  -0.1566349   0.1008342   0.0220997   0.0479153  -0.1128295  -0.0826695
    3  -0.0940841   0.0414273  -0.0216775  -0.0254717  -0.0132022   0.0888956
            7           8           9          10
    1  -0.1232112   0.0735274  -0.0626393  -0.0120219
    2   0.0983174  -0.0281116   0.0490056   0.0620735
    3  -0.0198115  -0.0079652   0.1282448  -0.0763553
 Max gradient component =       1.728E-01
 RMS gradient           =       8.562E-02
drvman.C: 248: out of SCF_Grad for normal SCF gradient
 Gradient time:  CPU 0.30 s  wall 0.30 s
 ------------------------------------------------------------------------------
                     drvman        : Timing summary (seconds)
 ------------------------------------------------------------------------------
     job step          cpu (% of tot)      sys (% of tot)     wall (% of tot)
 ------------------------------------------------------------------------------
 ------------------------------------------------------------------------------
   Grand Totals     0.3000E+00          0.3000E-05          0.2967E+00
 ------------------------------------------------------------------------------
drvman_main.C: 77: out of DrvMan  Time for this dynamics step: 1.9 s (CPU) 1.9 s (wall)

=============== TIME STEPS COMPLETED ==================

Step-to-Step energy fluctuations, |E(n) - E(n-1)|
Mean: -4.894e-06   Max: 5.746e-03   RMS: 1.064e-03
Overall energy fluctuations, |E(n) - E(0)|
Mean: -2.257e-03   Max: 6.640e-03   RMS: 1.198e-03   RMS(dE)/RMS(dV): 1.982e-02
Kinetic energy fluctuations, |T(n) - V(0)|
Mean: 2.139e-01   Max: 3.656e-01   RMS: 5.973e-02
Potential energy fluctuations, |V(n) - V(0)|
Mean: -2.162e-01   Max: 3.699e-01   RMS: 6.044e-02


 JobOver = TRUE
Archival summary:
1\1\qciep03\JobtypUnspecified\HF\STO-3G\46\jcartus\MonJun1812:55:392018MonJun1812:55:392018\0\\#,JobtypUnspecified,HF,STO-3G,\\0,1\C\H,1,1.00098\C,1,1.25717,2,80.4374\H,3,1.08843,1,128.669,2,-159.15,0\H,3,1.1665,1,128.298,2,-4.12019,0\C,1,1.84178,2,99.9015,3,-175.042,0\H,6,1.00117,1,121.473,2,-161.316,0\C,6,1.25557,1,115.565,2,22.1608,0\H,8,0.976329,6,136.239,1,-177.078,0\H,8,1.08964,6,139.846,1,13.3335,0\\HF=-152.73358\\@

 Total job time:  961.30s(wall), 937.69s(cpu) 
 Mon Jun 18 12:55:39 2018

        *************************************************************
        *                                                           *
        *  Thank you very much for using Q-Chem.  Have a nice day.  *
        *                                                           *
        *************************************************************


*** MISSION COMPLETED -- STARFLEET OUT ***

0 sent ACK to 0 
now end server 0 ... 
