Process 0 of 1 is on qciep03 - thread support 0
initial socket setup ...start
initial socket setup ...done 
now start server 0 ... 
qciep03.tugraz.at 127.0.1
Q-Chem Developer Version! Running on 127.0.1.*
                  Welcome to Q-Chem
     A Quantum Leap Into The Future Of Chemistry


 Q-Chem 5.0, Q-Chem, Inc., Pleasanton, CA (2017)

 Yihan Shao,  Zhengting Gan,  E. Epifanovsky,  A. T. B. Gilbert,  M. Wormit,  
 J. Kussmann,  A. W. Lange,  A. Behn,  Jia Deng,  Xintian Feng,  D. Ghosh,  
 M. Goldey,  P. R. Horn,  L. D. Jacobson,  I. Kaliman,  T. Kus,  A. Landau,  
 Jie Liu,  E. I. Proynov,  R. M. Richard,  R. P. Steele,  E. J. Sundstrom,  
 H. L. Woodcock III,  P. M. Zimmerman,  D. Zuev,  B. Albrecht,  E. Alguire,  
 S. A. Baeppler,  D. Barton,  Z. Benda,  Y. A. Bernard,  E. J. Berquist,  
 K. B. Bravaya,  H. Burton,  D. Casanova,  Chun-Min Chang,  Yunqing Chen,  
 A. Chien,  K. D. Closser,  M. P. Coons,  S. Dasgupta,  A. L. Dempwolff,  
 M. Diedenhofen,  Hainam Do,  R. G. Edgar,  Po-Tung Fang,  S. Fatehi,  
 Qingguo Feng,  J. Fosso-Tande,  Qinghui Ge,  A. Ghysels,  G. Gidofalvi,  
 J. Gomes,  J. Gonthier,  A. Gunina,  M. W. D. Hanson-Heine,  
 P. H. P. Harbach,  A. W. Hauser,  J. E. Herr,  E. G. Hohenstein,  
 Z. C. Holden,  Kerwin Hui,  T.-C. Jagau,  Hyunjun Ji,  B. Kaduk,  
 K. Khistyaev,  Jaehoon Kim,  P. Klunzinger,  K. Koh,  D. Kosenkov,  
 L. Koulias,  T. Kowalczyk,  C. M. Krauter,  A. Kunitsa,  Ka Un Lao,  
 A. Laurent,  K. V. Lawler,  Joonho Lee,  D. Lefrancois,  S. Lehtola,  
 D. S. Levine,  Yi-Pei Li,  You-Sheng Lin,  Fenglai Liu,  E. Livshits,  
 A. Luenser,  P. Manohar,  E. Mansoor,  S. F. Manzer,  Shan-Ping Mao,  
 Yuezhi Mao,  N. Mardirossian,  A. V. Marenich,  T. Markovich,  
 L. A. Martinez-Martinez,  S. A. Maurer,  N. J. Mayhall,  S. C. McKenzie,  
 J.-M. Mewes,  A. F. Morrison,  J. W. Mullinax,  K. Nanda,  
 T. S. Nguyen-Beck,  R. Olivares-Amaya,  J. A. Parkhill,  T. M. Perrine,  
 F. Plasser,  S. Prager,  A. Prociuk,  E. Ramos,  D. R. Rehn,  F. Rob,  
 M. Schneider,  N. Sergueev,  S. M. Sharada,  S. Sharma,  D. W. Small,  
 T. Stauch,  T. Stein,  Yu-Chuan Su,  A. J. W. Thom,  A. Tkatchenko,  
 T. Tsuchimochi,  L. Vogt,  O. Vydrov,  M. A. Watson,  J. Wenzel,  
 M. de Wergifosse,  T. A. Wesolowski,  A. White,  J. Witte,  A. Yamada,  
 Jun Yang,  K. Yao,  S. Yeganeh,  S. R. Yost,  Zhi-Qiang You,  A. Zech,  
 Igor Ying Zhang,  Xing Zhang,  Yan Zhao,  Ying Zhu,  B. R. Brooks,  
 G. K. L. Chan,  C. J. Cramer,  M. S. Gordon,  W. J. Hehre,  A. Klamt,  
 M. W. Schmidt,  C. D. Sherrill,  D. G. Truhlar,  A. Aspuru-Guzik,  R. Baer,  
 A. T. Bell,  N. A. Besley,  Jeng-Da Chai,  R. A. DiStasio Jr.,  A. Dreuw,  
 B. D. Dunietz,  T. R. Furlani,  Chao-Ping Hsu,  Yousung Jung,  Jing Kong,  
 D. S. Lambrecht,  WanZhen Liang,  C. Ochsenfeld,  V. A. Rassolov,  
 L. V. Slipchenko,  J. E. Subotnik,  T. Van Voorhis,  J. M. Herbert,  
 A. I. Krylov,  P. M. W. Gill,  M. Head-Gordon

 Contributors to earlier versions of Q-Chem not listed above: 
 R. D. Adamson,  B. Austin,  J. Baker,  G. J. O. Beran,  K. Brandhorst,  
 S. T. Brown,  E. F. C. Byrd,  A. K. Chakraborty,  C.-L. Cheng,  
 Siu Hung Chien,  D. M. Chipman,  D. L. Crittenden,  H. Dachsel,  
 R. J. Doerksen,  A. D. Dutoi,  L. Fusti-Molnar,  W. A. Goddard III,  
 A. Golubeva-Zadorozhnaya,  S. R. Gwaltney,  G. Hawkins,  A. Heyden,  
 S. Hirata,  G. Kedziora,  F. J. Keil,  C. Kelley,  Jihan Kim,  R. A. King,  
 R. Z. Khaliullin,  P. P. Korambath,  W. Kurlancheek,  A. M. Lee,  M. S. Lee,  
 S. V. Levchenko,  Ching Yeh Lin,  D. Liotard,  R. C. Lochan,  I. Lotan,  
 P. E. Maslen,  N. Nair,  D. P. O'Neill,  D. Neuhauser,  E. Neuscamman,  
 C. M. Oana,  R. Olson,  B. Peters,  R. Peverati,  P. A. Pieniazek,  
 Y. M. Rhee,  J. Ritchie,  M. A. Rohrdanz,  E. Rosta,  N. J. Russ,  
 H. F. Schaefer III,  N. E. Schultz,  N. Shenvi,  A. C. Simmonett,  A. Sodt,  
 D. Stuck,  K. S. Thanthiriwatte,  V. Vanovschi,  Tao Wang,  A. Warshel,  
 C. F. Williams,  Q. Wu,  X. Xu,  W. Zhang

 Please cite Q-Chem as follows:
 Y. Shao et al., Mol. Phys. 113, 184-215 (2015)
 DOI: 10.1080/00268976.2014.952696

 Q-Chem 5.0.2 for Intel X86 EM64T Linux

 Parts of Q-Chem use Armadillo 5.200.1 (Boston Tea Smuggler).
 http://arma.sourceforge.net/

 Q-Chem begins on Mon Jun 18 12:26:11 2018  


Host: 0

     Scratch files written to /home/jcartus/scratch/Butadien_17.mol.dir//
 Using version located at /usr/local/qchem/bin/qchem

 Parallel job on  1  processors
Symmetry disabled for AIMD jobs.

Total Memory Limit in MB = 2000
Mega-Array Size in MB = 192

Checking the input file for inconsistencies... 	...done.
Finally everything over in PARseQInput

--------------------------------------------------------------
User input:
--------------------------------------------------------------
$rem
AIMD_STEPS                    400
FOCK_EXTRAP_POINTS            12
MAX_SCF_CYCLES                100
BASIS                         sto-3g
AIMD_INIT_VELOC               thermal
FOCK_EXTRAP_ORDER             6
AIMD_TEMP                     400
AIMD_METHOD                   bomd
TIME_STEP                     20
METHOD                        hf
JOBTYPE                       aimd
$end

$molecule
0 1
C    4.59782    0.26917    0.33148
C    3.48375    0.83300    -0.14859
H    5.54890    0.78845    0.26750
H    4.59614    -0.71199    0.79536
C    2.19371    0.19174    -0.09177
C    1.07962    0.75344    -0.57483
H    1.08139    1.73299    -1.04209
H    0.12885    0.23364    -0.51052
H    3.54348    1.81929    -0.60415
H    2.13370    -0.79330    0.36649
$end


--------------------------------------------------------------
 ----------------------------------------------------------------
             Standard Nuclear Orientation (Angstroms)
    I     Atom           X                Y                Z
 ----------------------------------------------------------------
    1      C       4.5978200000     0.2691700000     0.3314800000
    2      C       3.4837500000     0.8330000000    -0.1485900000
    3      H       5.5489000000     0.7884500000     0.2675000000
    4      H       4.5961400000    -0.7119900000     0.7953600000
    5      C       2.1937100000     0.1917400000    -0.0917700000
    6      C       1.0796200000     0.7534400000    -0.5748300000
    7      H       1.0813900000     1.7329900000    -1.0420900000
    8      H       0.1288500000     0.2336400000    -0.5105200000
    9      H       3.5434800000     1.8192900000    -0.6041500000
   10      H       2.1337000000    -0.7933000000     0.3664900000
 ----------------------------------------------------------------
 Nuclear Repulsion Energy =   104.1575589180 hartrees
 There are       15 alpha and       15 beta electrons
 Requested basis set is STO-3G
 There are 14 shells and 26 basis functions

 Total QAlloc Memory Limit   2000 MB
 Mega-Array Size       188 MB
 MEM_STATIC part       192 MB

finished with qalloc call

                       Distance Matrix (Angstroms)
             C (  1)   C (  2)   H (  3)   H (  4)   C (  5)   C (  6)
   C (  2)  1.337731
   H (  3)  1.085495  2.107121
   H (  4)  1.085294  2.124958  1.854106
   C (  5)  2.442311  1.441751  3.426724  2.715768
   C (  6)  3.665194  2.442919  4.548100  4.048558  1.337928
   H (  7)  4.049042  2.716553  4.750350  4.659143  2.125045  1.085289
   H (  8)  4.547738  3.427182  5.503642  4.749339  2.107310  1.085491
   H (  9)  2.095211  1.088058  2.417460  3.078003  2.175622  2.684679
   H ( 10)  2.683646  2.175499  3.765013  2.500830  1.088075  2.095131
             H (  7)   H (  8)   H (  9)
   H (  8)  1.854171
   H (  9)  2.502224  3.765999
   H ( 10)  3.077921  2.417266  3.123339

 Job number = 2, Threshold = 1.00E-11
Integral type ranges set in mkLRange.C for JobNum: 2  <1-6|1-6>
Symmetry turned off temporarily
 Using the largest function pair in Schwarz integrals
Total number of integrals generated =            3252
Symmetry turned back on
 A cutoff of  1.0D-11 yielded    102 shell pairs
 There are       372 function pairs
 Job number = 11, Threshold = 1.00E-11
Integral type ranges set in mkLRange.C for JobNum: 11  <1-6|7-7>
Total number of integrals generated =            3720
 Smallest overlap matrix eigenvalue = 1.84E-01
 Multipole matrices computed through 2nd order

 Scale SEOQF with 1.000000e-02/1.000000e-01/1.000000e+00

 Standard Electronic Orientation quadrupole field applied
 Nucleus-field energy     =    -0.0000000035 hartrees
 ENuRep (before)= 104.1575589180
 ENucField = -0.0000000035
 ENuRep (after) = 104.1575589145
 Guess from superposition of atomic densities
 Warning:  Energy on first SCF cycle will be non-variational
 SAD guess density has 30.000000 electrons

 ==================================================
    GEN_SCFMAN: A general SCF calculation manager  
                                                   
    Authors:                                       
        -- Eric Jon Sundstrom 2008-2014            
        -- Paul Horn 2010-2015                     
        -- Yuezhi Mao 2012-                        
        -- Dmitri Zuev 2014                        
        -- Alec White 2015-                        
        -- David Stuck 2015                        
        -- Shaama M.S. 2015                        
        -- Shane Yost 2015-                         
        -- Joonho Lee 2016-                        
        -- David Small 2016-                       
        -- Daniel Levine 2016-                     
        -- Susi Lehtola 2017-                      
        -- Hugh Burton 2017-                       
 ==================================================
 Hartree-Fock
Finding J and K together
 Job number = 22, Threshold = 1.00E-11
Integral type ranges set in mkLRange.C for JobNum: 22  <1-6|1-6>
 MakeJK  time:  CPU       0.16 s  wall       0.16 s
 A restricted SCF calculation will be
 performed using DIIS
 SCF converges when DIIS error is below 1.0e-08
 ---------------------------------------
  Cycle       Energy         DIIS error
 ---------------------------------------
Finding J and K together
 Job number = 22, Threshold = 1.00E-11
Integral type ranges set in mkLRange.C for JobNum: 22  <1-6|1-6>
 MakeJK  time:  CPU       0.16 s  wall       0.17 s
    1    -152.6467037098      2.15e-01  
Finding J and K together
 Job number = 22, Threshold = 1.00E-11
Integral type ranges set in mkLRange.C for JobNum: 22  <1-6|1-6>
 MakeJK  time:  CPU       0.17 s  wall       0.17 s
    2    -152.9904366915      1.29e-02  
Finding J and K together
 Job number = 22, Threshold = 1.00E-11
Integral type ranges set in mkLRange.C for JobNum: 22  <1-6|1-6>
 MakeJK  time:  CPU       0.18 s  wall       0.18 s
    3    -153.0145674221      3.50e-03  
Finding J and K together
 Job number = 22, Threshold = 1.00E-11
Integral type ranges set in mkLRange.C for JobNum: 22  <1-6|1-6>
 MakeJK  time:  CPU       0.15 s  wall       0.15 s
    4    -153.0163570807      1.28e-03  
Finding J and K together
 Job number = 22, Threshold = 1.00E-11
Integral type ranges set in mkLRange.C for JobNum: 22  <1-6|1-6>
 MakeJK  time:  CPU       0.18 s  wall       0.18 s
    5    -153.0165281006      9.61e-05  
Finding J and K together
 Job number = 22, Threshold = 1.00E-11
Integral type ranges set in mkLRange.C for JobNum: 22  <1-6|1-6>
 MakeJK  time:  CPU       0.19 s  wall       0.20 s
    6    -153.0165312940      1.29e-05  
Finding J and K together
 Job number = 22, Threshold = 1.00E-11
Integral type ranges set in mkLRange.C for JobNum: 22  <1-6|1-6>
 MakeJK  time:  CPU       0.18 s  wall       0.19 s
    7    -153.0165313540      1.48e-06  
Finding J and K together
 Job number = 22, Threshold = 1.00E-11
Integral type ranges set in mkLRange.C for JobNum: 22  <1-6|1-6>
 MakeJK  time:  CPU       0.19 s  wall       0.19 s
    8    -153.0165313545      1.05e-07  
Finding J and K together
 Job number = 22, Threshold = 1.00E-11
Integral type ranges set in mkLRange.C for JobNum: 22  <1-6|1-6>
 MakeJK  time:  CPU       0.18 s  wall       0.19 s
    9    -153.0165313545      3.29e-08  
Finding J and K together
 Job number = 22, Threshold = 1.00E-11
Integral type ranges set in mkLRange.C for JobNum: 22  <1-6|1-6>
 MakeJK  time:  CPU       0.18 s  wall       0.20 s
   10    -153.0165313545      1.41e-08  
   11    -153.0165313545      3.67e-09  Convergence criterion met
 ---------------------------------------
 SCF time:   CPU 1.94s  wall 2.00s 
 Total energy in the final basis set =     -153.0165313545
Wall  1 = 2
Clock 1 = 1.9450659752
 ==================================================
                  Done GEN_SCFMAN                  
 ==================================================

Symmetry turned off temporarily

 --------------------------------------------------------------

                    Orbital Energies (a.u.)
 --------------------------------------------------------------

 Alpha MOs
 -- Occupied --
-11.031 -11.030 -11.016 -11.016  -1.036  -0.942  -0.772  -0.708
 -0.591  -0.591  -0.498  -0.491  -0.443  -0.399  -0.261
 -- Virtual --
  0.243   0.421   0.593   0.674   0.684   0.697   0.699   0.880
  0.910   1.025   1.078
 --------------------------------------------------------------

          Ground-State Mulliken Net Atomic Charges

     Atom                 Charge (a.u.)
  ----------------------------------------
      1 C                    -0.124580
      2 C                    -0.059606
      3 H                     0.060919
      4 H                     0.060788
      5 C                    -0.059561
      6 C                    -0.124609
      7 H                     0.060761
      8 H                     0.060923
      9 H                     0.062505
     10 H                     0.062459
  ----------------------------------------
  Sum of atomic charges =    -0.000000

 -----------------------------------------------------------------
                    Cartesian Multipole Moments
 -----------------------------------------------------------------
    Charge (ESU x 10^10)
                -0.0000
    Dipole Moment (Debye)
         X       0.0005      Y      -0.0002      Z      -0.0001
       Tot       0.0005
    Quadrupole Moments (Debye-Ang)
        XX     -22.7667     XY       0.2305     YY     -22.6137
        XZ       0.3482     YZ      -1.1631     ZZ     -24.5343
    Octopole Moments (Debye-Ang^2)
       XXX    -193.8947    XXY     -10.3476    XYY     -63.9528
       YYY     -34.7190    XXZ       4.7297    XYZ      -3.1482
       YYZ       1.5462    XZZ     -69.7364    YZZ     -12.2729
       ZZZ       8.9022
    Hexadecapole Moments (Debye-Ang^3)
      XXXX   -1407.3730   XXXY     -79.6794   XXYY    -248.5099
      XYYY     -90.7491   YYYY     -89.8658   XXXZ       1.0272
      XXYZ      -4.8489   XYYZ      -5.6209   YYYZ      11.1585
      XXZZ    -261.3180   XYZZ     -33.0127   YYZZ     -22.1394
      XZZZ      -8.9197   YZZZ      14.7806   ZZZZ     -46.1245
 -----------------------------------------------------------------
drvman_main.C: 73: calling DrvMan  Calculating analytic gradient of the SCF energy
drvman.C : 218: Calculating analytic gradient of the SCF energy
drvman.C: 244: calling SCF_Grad for normal SCF gradient
 Job number = 111, Threshold = 1.00E-11
Integral type ranges set in mkLRange.C for JobNum: 11  <1-6|7-7>
Finding J and K together
 ML is being used
 Job number = 122, Threshold = 1.00E-11
Integral type ranges set in mkLRange.C for JobNum: 22  <1-6|1-6>
Total number of integrals generated =           70483
 MakeJK  time:  CPU       0.44 s  wall       0.46 s
 Gradient of SCF Energy
            1           2           3           4           5           6
    1   0.0227901  -0.0652853   0.0017366  -0.0005027   0.0656172  -0.0231190
    2  -0.0187401   0.0036686   0.0044823  -0.0034610  -0.0036556   0.0187447
    3   0.0132556  -0.0142546  -0.0017900   0.0015139   0.0143879  -0.0133830
            7           8           9          10
    1   0.0005311  -0.0017425   0.0027270  -0.0027525
    2   0.0034286  -0.0044750   0.0037972  -0.0037897
    3  -0.0015620   0.0017983  -0.0012586   0.0012926
 Max gradient component =       6.562E-02
 RMS gradient           =       1.936E-02
drvman.C: 248: out of SCF_Grad for normal SCF gradient
 Gradient time:  CPU 0.46 s  wall 0.48 s
 ------------------------------------------------------------------------------
                     drvman        : Timing summary (seconds)
 ------------------------------------------------------------------------------
     job step          cpu (% of tot)      sys (% of tot)     wall (% of tot)
 ------------------------------------------------------------------------------
 ------------------------------------------------------------------------------
   Grand Totals     0.4640E+00          0.2000E-05          0.4816E+00
 ------------------------------------------------------------------------------
drvman_main.C: 77: out of DrvMan =======================================================
            AB INITIO MOLECULAR DYNAMICS
=======================================================
Created directory /home/jcartus/scratch/Butadien_17.mol.dir/AIMD
AIMD will take 400 BOMD steps Velocity Verlet integration
Time step = 20.00000 a.u. ( = 0.48378 fs)
Total simulation time requested = 193.511 fs
Integral threshold = 10**(-11)
SCF convergence threshold = 10**(-8)
Generating viewable xyz trajectory,
 file (in Angstroms) at AIMD/View.xyz
Choosing nuclear velocities from Maxwell-Boltzmann
Velocities sampled from Maxwell-Boltzmann at T = 400.0 K
sqrt(kT/m) and (vx,vy,vz) for each atom:
  1   2.4064e-04  -1.43e-04  -3.64e-04  -1.21e-04 
  2   2.4064e-04  -1.87e-04   6.92e-05  -2.34e-04 
  3   8.3036e-04   1.12e-03  -3.23e-04   7.19e-04 
  4   8.3036e-04   4.51e-04   4.53e-04  -5.73e-04 
  5   2.4064e-04  -1.88e-04   3.04e-05  -2.01e-05 
  6   2.4064e-04   2.99e-04  -1.06e-04  -4.64e-05 
  7   8.3036e-04  -1.14e-04  -4.07e-05  -7.05e-04 
  8   8.3036e-04  -6.43e-04   5.56e-04   5.65e-04 
  9   8.3036e-04  -1.49e-03  -1.61e-04   1.40e-04 
 10   8.3036e-04  -3.44e-04  -1.61e-03   6.56e-04 
T(nuclear) = 0.01320358 a.u.
v(c.o.m.) = ( -6.7815e-05,  -1.0327e-04,  -7.8622e-05)
T(c.o.m.) = 1.05636e-03 a.u.
kT/2 = 0.000633 a.u.
Tx   = 0.005862 a.u.
Ty   = 0.004616 a.u.
Tz   = 0.002726 a.u.
Mean velocities (a.u.):  -1.2417e-04  -1.4973e-04   3.7983e-05
Removing c.o.m. velocity
T(nuclear) = 0.01473405 a.u.
v(c.o.m.) = ( -2.3312e-20,   9.0151e-21,   1.1269e-20)
T(c.o.m.) = 3.70306e-35 a.u.
kT   = 0.001267 a.u. = 0.79 kcal/mol
Tx   = 0.005802 a.u. = 3.64 kcal/mol
Ty   = 0.004877 a.u. = 3.06 kcal/mol
Tz   = 0.004055 a.u. = 2.54 kcal/mol
Initial velocities in m/s
  1     -2.4579e+02     -6.9541e+02     -1.8758e+02 
  2     -3.4245e+02      2.5324e+02     -4.3369e+02 
  3      3.2479e+03      5.0446e+02      2.4949e+03 
  4      1.7820e+03      2.2017e+03     -3.3185e+02 
  5     -3.4548e+02      1.6827e+02      3.3400e+01 
  6      7.2061e+02     -1.2956e+02     -2.4145e+01 
  7      5.4711e+02      1.1225e+03     -6.2056e+02 
  8     -6.1013e+02      2.4288e+03      2.1589e+03 
  9     -2.4722e+03      8.5982e+02      1.2281e+03 
 10      4.2797e+01     -2.3135e+03      2.3577e+03 
----------------------------------------------------------------------------
       Nuclear coordinates (Angst) and velocities (a.u.)
----------------------------------------------------------------------------
             x        y        z            v_x         v_y        v_z
----------------------------------------------------------------------------
1      C    4.5978   0.2692   0.3315    -1.1235e-04  -3.1787e-04  -8.5743e-05
2      C    3.4838   0.8330  -0.1486    -1.5654e-04   1.1576e-04  -1.9824e-04
3      H    5.5489   0.7884   0.2675     1.4846e-03   2.3059e-04   1.1404e-03
4      H    4.5961  -0.7120   0.7954     8.1456e-04   1.0064e-03  -1.5169e-04
5      C    2.1937   0.1917  -0.0918    -1.5792e-04   7.6916e-05   1.5267e-05
6      C    1.0796   0.7534  -0.5748     3.2939e-04  -5.9221e-05  -1.1037e-05
7      H    1.0814   1.7330  -1.0421     2.5008e-04   5.1312e-04  -2.8366e-04
8      H    0.1288   0.2336  -0.5105    -2.7889e-04   1.1102e-03   9.8683e-04
9      H    3.5435   1.8193  -0.6041    -1.1301e-03   3.9303e-04   5.6136e-04
10     H    2.1337  -0.7933   0.3665     1.9563e-05  -1.0575e-03   1.0777e-03
----------------------------------------------------------------------------
Write nuclear velocities every 1 time steps

TIME STEP #1 (t = 0.000 a.u. = 0.00000 fs)
--------------------------------------
 Instantaneous Temperature = 310.2 K
 ----------------------------------------------------------------
             Standard Nuclear Orientation (Angstroms)
    I     Atom           X                Y                Z
 ----------------------------------------------------------------
    1      C       4.5965206827     0.2658964488     0.3305083992
    2      C       3.4824091709     0.8342073688    -0.1506191435
    3      H       5.5645127526     0.7906322255     0.2796728945
    4      H       4.6047898720    -0.7011391595     0.7936673689
    5      C       2.1917211570     0.1925717294    -0.0916780306
    6      C       1.0832179886     0.7527225418    -0.5748820549
    7      H       1.0840061859     1.7382230632    -1.0450021577
    8      H       0.1259987065     0.2456478028    -0.5001794866
    9      H       3.5313627658     1.8232308520    -0.5981362915
   10      H       2.1340656077    -0.8042738265     0.3778215921
 ----------------------------------------------------------------
 Nuclear Repulsion Energy =   104.1001218448 hartrees
 There are       15 alpha and       15 beta electrons

                       Distance Matrix (Angstroms)
             C (  1)   C (  2)   H (  3)   H (  4)   C (  5)   C (  6)
   C (  2)  1.340039
   H (  3)  1.102243  2.126548
   H (  4)  1.072260  2.123371  1.846792
   C (  5)  2.442679  1.442583  3.445475  2.721297
   C (  6)  3.660605  2.437777  4.562204  4.048223  1.332679
   H (  7)  4.049387  2.714683  4.767351  4.661235  2.127181  1.091890
   H (  8)  4.547089  3.425505  5.521106  4.757102  2.106395  1.085806
   H (  9)  2.102911  1.086663  2.443462  3.076005  2.170297  2.672067
   H ( 10)  2.685366  2.186756  3.784353  2.507597  1.103383  2.106220
             H (  7)   H (  8)   H (  9)
   H (  8)  1.855368
   H (  9)  2.489271  3.754313
   H ( 10)  3.096989  2.430135  3.131887

 Applying Cartesian multipole field
    Component          Value
    ---------          -----
     (2,0,0)        1.00000E-12
     (0,2,0)        2.00000E-11
     (0,0,2)       -3.00000E-10
 Nucleus-field energy     =    -0.0000000035 hartrees
 ENuRep (before)= 104.1001218448
 ENucField = -0.0000000035
 ENuRep (after) = 104.1001218413
 Job number = 2, Threshold = 1.00E-11
Integral type ranges set in mkLRange.C for JobNum: 2  <1-6|1-6>
Symmetry turned off temporarily
Symmetry turned back on
 Job number = 11, Threshold = 1.00E-11
Integral type ranges set in mkLRange.C for JobNum: 11  <1-6|7-7>
 Smallest overlap matrix eigenvalue = 1.83E-01
 Multipole matrices computed through 2nd order
 Guess from superposition of atomic densities
 Warning:  Energy on first SCF cycle will be non-variational
 SAD guess density has 30.000000 electrons
 SCF convergence criterion is 10**(-8)
 A restricted Hartree-Fock SCF calculation will be
 performed using Pulay DIIS extrapolation
 SCF converges when DIIS error is below 1.0E-08
Finding J and K together
 Job number = 22, Threshold = 1.00E-11
Integral type ranges set in mkLRange.C for JobNum: 22  <1-6|1-6>
 MakeJK  time:  CPU       0.11 s  wall       0.11 s
Fock build time:  0.11 s (CPU) 0.11 s (wall)
DIIS Errors:  Max 1.10E+00 RMS 2.15E-01

Current DIIS subspace size = 1
REM_GRID_RESTART_DIIS = 0

 ---------------------------------------
  Cycle       Energy         DIIS Error
 ---------------------------------------
    1    -152.6312882209      2.15E-01  00000
Finding J and K together
 Job number = 22, Threshold = 1.00E-11
Integral type ranges set in mkLRange.C for JobNum: 22  <1-6|1-6>
 MakeJK  time:  CPU       0.15 s  wall       0.15 s
Fock build time:  0.15 s (CPU) 0.15 s (wall)
DIIS Errors:  Max 6.00E-02 RMS 1.29E-02

Current DIIS subspace size = 2
REM_GRID_RESTART_DIIS = 0

    2    -152.9897145126      1.29E-02  00000
Finding J and K together
 Job number = 22, Threshold = 1.00E-11
Integral type ranges set in mkLRange.C for JobNum: 22  <1-6|1-6>
 MakeJK  time:  CPU       0.16 s  wall       0.16 s
Fock build time:  0.16 s (CPU) 0.17 s (wall)
DIIS Errors:  Max 1.86E-02 RMS 3.52E-03

Current DIIS subspace size = 3
REM_GRID_RESTART_DIIS = 0

    3    -153.0139685488      3.52E-03  00000
Finding J and K together
 Job number = 22, Threshold = 1.00E-11
Integral type ranges set in mkLRange.C for JobNum: 22  <1-6|1-6>
 MakeJK  time:  CPU       0.20 s  wall       0.22 s
Fock build time:  0.20 s (CPU) 0.22 s (wall)
DIIS Errors:  Max 6.51E-03 RMS 1.31E-03

Current DIIS subspace size = 4
REM_GRID_RESTART_DIIS = 0

    4    -153.0157687221      1.31E-03  00000
Finding J and K together
 Job number = 22, Threshold = 1.00E-11
Integral type ranges set in mkLRange.C for JobNum: 22  <1-6|1-6>
 MakeJK  time:  CPU       0.18 s  wall       0.19 s
Fock build time:  0.18 s (CPU) 0.19 s (wall)
DIIS Errors:  Max 8.97E-04 RMS 9.51E-05

Current DIIS subspace size = 5
REM_GRID_RESTART_DIIS = 0

    5    -153.0159468973      9.51E-05  00000
Finding J and K together
 Job number = 22, Threshold = 1.00E-11
Integral type ranges set in mkLRange.C for JobNum: 22  <1-6|1-6>
 MakeJK  time:  CPU       0.19 s  wall       0.21 s
Fock build time:  0.19 s (CPU) 0.21 s (wall)
DIIS Errors:  Max 1.31E-04 RMS 1.39E-05

Current DIIS subspace size = 6
REM_GRID_RESTART_DIIS = 0

    6    -153.0159500065      1.39E-05  00000
Finding J and K together
 Job number = 22, Threshold = 1.00E-11
Integral type ranges set in mkLRange.C for JobNum: 22  <1-6|1-6>
 MakeJK  time:  CPU       0.20 s  wall       0.27 s
Fock build time:  0.20 s (CPU) 0.27 s (wall)
DIIS Errors:  Max 9.60E-06 RMS 2.38E-06

Current DIIS subspace size = 7
REM_GRID_RESTART_DIIS = 0

    7    -153.0159500750      2.38E-06  00000
Finding J and K together
 Job number = 22, Threshold = 1.00E-11
Integral type ranges set in mkLRange.C for JobNum: 22  <1-6|1-6>
 MakeJK  time:  CPU       0.15 s  wall       0.17 s
Fock build time:  0.15 s (CPU) 0.17 s (wall)
DIIS Errors:  Max 3.27E-06 RMS 8.74E-07

Current DIIS subspace size = 8
REM_GRID_RESTART_DIIS = 0

    8    -153.0159500758      8.74E-07  00000
Finding J and K together
 Job number = 22, Threshold = 1.00E-11
Integral type ranges set in mkLRange.C for JobNum: 22  <1-6|1-6>
 MakeJK  time:  CPU       0.16 s  wall       0.16 s
Fock build time:  0.16 s (CPU) 0.16 s (wall)
DIIS Errors:  Max 5.02E-07 RMS 8.38E-08

Current DIIS subspace size = 9
REM_GRID_RESTART_DIIS = 0

    9    -153.0159500759      8.38E-08  00000
Finding J and K together
 Job number = 22, Threshold = 1.00E-11
Integral type ranges set in mkLRange.C for JobNum: 22  <1-6|1-6>
 MakeJK  time:  CPU       0.16 s  wall       0.16 s
Fock build time:  0.16 s (CPU) 0.16 s (wall)
DIIS Errors:  Max 2.71E-07 RMS 3.76E-08

Current DIIS subspace size = 10
REM_GRID_RESTART_DIIS = 0

   10    -153.0159500759      3.76E-08  00000
Finding J and K together
 Job number = 22, Threshold = 1.00E-11
Integral type ranges set in mkLRange.C for JobNum: 22  <1-6|1-6>
 MakeJK  time:  CPU       0.16 s  wall       0.16 s
Fock build time:  0.16 s (CPU) 0.16 s (wall)
DIIS Errors:  Max 3.78E-08 RMS 6.11E-09

Current DIIS subspace size = 11
REM_GRID_RESTART_DIIS = 0

   11    -153.0159500759      6.11E-09  00000 Convergence criterion met
 ---------------------------------------
 SCF time:  CPU 1.84 s  wall 2.02 s
 SCF   energy in the final basis set = -153.01595008
 Total energy in the final basis set = -153.01595008
drvman_main.C: 73: calling DrvMan  Calculating analytic gradient of the SCF energy
drvman.C : 218: Calculating analytic gradient of the SCF energy
drvman.C: 244: calling SCF_Grad for normal SCF gradient
 Job number = 111, Threshold = 1.00E-11
Integral type ranges set in mkLRange.C for JobNum: 11  <1-6|7-7>
Finding J and K together
 ML is being used
 Job number = 122, Threshold = 1.00E-11
Integral type ranges set in mkLRange.C for JobNum: 22  <1-6|1-6>
 MakeJK  time:  CPU       0.47 s  wall       0.52 s
 Gradient of SCF Energy
            1           2           3           4           5           6
    1   0.0103182  -0.0667030   0.0152229   0.0015280   0.0591087  -0.0150924
    2  -0.0391431   0.0074291   0.0101140   0.0082644   0.0111946   0.0097707
    3   0.0189125  -0.0168281  -0.0011176  -0.0029860   0.0065407  -0.0094598
            7           8           9          10
    1  -0.0001442  -0.0023740   0.0009963  -0.0028606
    2   0.0088067  -0.0036590   0.0029687  -0.0157459
    3  -0.0038918   0.0022688  -0.0004812   0.0070424
 Max gradient component =       6.670E-02
 RMS gradient           =       1.975E-02
drvman.C: 248: out of SCF_Grad for normal SCF gradient
 Gradient time:  CPU 0.50 s  wall 0.56 s
 ------------------------------------------------------------------------------
                     drvman        : Timing summary (seconds)
 ------------------------------------------------------------------------------
     job step          cpu (% of tot)      sys (% of tot)     wall (% of tot)
 ------------------------------------------------------------------------------
 ------------------------------------------------------------------------------
   Grand Totals     0.4960E+00          0.3000E-05          0.5629E+00
 ------------------------------------------------------------------------------
drvman_main.C: 77: out of DrvMan  Time for this dynamics step: 2.4 s (CPU) 2.6 s (wall)

TIME STEP #2 (t = 20.000 a.u. = 0.48378 fs)
--------------------------------------
 Instantaneous Temperature = 298.4 K
 ----------------------------------------------------------------
             Standard Nuclear Orientation (Angstroms)
    I     Atom           X                Y                Z
 ----------------------------------------------------------------
    1      C       4.5951215208     0.2630016667     0.3293537914
    2      C       3.4817137952     0.8353428502    -0.1524854497
    3      H       5.5783715793     0.7916491552     0.2919745528
    4      H       4.6132636963    -0.6912405071     0.7923187699
    5      C       2.1891603463     0.1932951334    -0.0916493530
    6      C       1.0869620191     0.7519105376    -0.5748425722
    7      H       1.0866389887     1.7424414555    -1.0474659202
    8      H       0.1234209420     0.2580771872    -0.4901003726
    9      H       3.5191307362     1.8268296637    -0.5920671379
   10      H       2.1347607982    -0.8134334656     0.3883417861
 ----------------------------------------------------------------
 Nuclear Repulsion Energy =   104.0673532052 hartrees
 There are       15 alpha and       15 beta electrons

                       Distance Matrix (Angstroms)
             C (  1)   C (  2)   H (  3)   H (  4)   C (  5)   C (  6)
   C (  2)  1.341425
   H (  3)  1.116981  2.143695
   H (  4)  1.060775  2.122149  1.838679
   C (  5)  2.443512  1.444514  3.462939  2.727651
   C (  6)  3.655651  2.433143  4.574463  4.048039  1.326789
   H (  7)  4.048929  2.712969  4.782653  4.663121  2.128143  1.097508
   H (  8)  4.546167  3.424230  5.536499  4.764923  2.104813  1.086031
   H (  9)  2.110055  1.085209  2.468522  3.074789  2.165104  2.659171
   H ( 10)  2.686181  2.196643  3.800530  2.514181  1.116626  2.115634
             H (  7)   H (  8)   H (  9)
   H (  8)  1.855204
   H (  9)  2.476192  3.741955
   H ( 10)  3.113294  2.442393  3.138259

 Applying Cartesian multipole field
    Component          Value
    ---------          -----
     (2,0,0)        1.00000E-12
     (0,2,0)        2.00000E-11
     (0,0,2)       -3.00000E-10
 Nucleus-field energy     =    -0.0000000035 hartrees
 ENuRep (before)= 104.0673532052
 ENucField = -0.0000000035
 ENuRep (after) = 104.0673532017
 Job number = 2, Threshold = 1.00E-11
Integral type ranges set in mkLRange.C for JobNum: 2  <1-6|1-6>
Symmetry turned off temporarily
Symmetry turned back on
 Job number = 11, Threshold = 1.00E-11
Integral type ranges set in mkLRange.C for JobNum: 11  <1-6|7-7>
 Smallest overlap matrix eigenvalue = 1.82E-01
 Multipole matrices computed through 2nd order
 Guess from superposition of atomic densities
 Warning:  Energy on first SCF cycle will be non-variational
 SAD guess density has 30.000000 electrons
 SCF convergence criterion is 10**(-8)
 A restricted Hartree-Fock SCF calculation will be
 performed using Pulay DIIS extrapolation
 SCF converges when DIIS error is below 1.0E-08
Finding J and K together
 Job number = 22, Threshold = 1.00E-11
Integral type ranges set in mkLRange.C for JobNum: 22  <1-6|1-6>
 MakeJK  time:  CPU       0.14 s  wall       0.15 s
Fock build time:  0.14 s (CPU) 0.15 s (wall)
DIIS Errors:  Max 1.11E+00 RMS 2.14E-01

Current DIIS subspace size = 1
REM_GRID_RESTART_DIIS = 0

 ---------------------------------------
  Cycle       Energy         DIIS Error
 ---------------------------------------
    1    -152.6211110662      2.14E-01  00000
Finding J and K together
 Job number = 22, Threshold = 1.00E-11
Integral type ranges set in mkLRange.C for JobNum: 22  <1-6|1-6>
 MakeJK  time:  CPU       0.19 s  wall       0.25 s
Fock build time:  0.19 s (CPU) 0.26 s (wall)
DIIS Errors:  Max 6.06E-02 RMS 1.30E-02

Current DIIS subspace size = 2
REM_GRID_RESTART_DIIS = 0

    2    -152.9880218481      1.30E-02  00000
Finding J and K together
 Job number = 22, Threshold = 1.00E-11
Integral type ranges set in mkLRange.C for JobNum: 22  <1-6|1-6>
 MakeJK  time:  CPU       0.20 s  wall       0.22 s
Fock build time:  0.20 s (CPU) 0.22 s (wall)
DIIS Errors:  Max 1.87E-02 RMS 3.54E-03

Current DIIS subspace size = 3
REM_GRID_RESTART_DIIS = 0

    3    -153.0123949669      3.54E-03  00000
Finding J and K together
 Job number = 22, Threshold = 1.00E-11
Integral type ranges set in mkLRange.C for JobNum: 22  <1-6|1-6>
 MakeJK  time:  CPU       0.20 s  wall       0.21 s
Fock build time:  0.20 s (CPU) 0.21 s (wall)
DIIS Errors:  Max 6.66E-03 RMS 1.33E-03

Current DIIS subspace size = 4
REM_GRID_RESTART_DIIS = 0

    4    -153.0142028408      1.33E-03  00000
Finding J and K together
 Job number = 22, Threshold = 1.00E-11
Integral type ranges set in mkLRange.C for JobNum: 22  <1-6|1-6>
 MakeJK  time:  CPU       0.20 s  wall       0.20 s
Fock build time:  0.20 s (CPU) 0.20 s (wall)
DIIS Errors:  Max 8.84E-04 RMS 9.38E-05

Current DIIS subspace size = 5
REM_GRID_RESTART_DIIS = 0

    5    -153.0143864952      9.38E-05  00000
Finding J and K together
 Job number = 22, Threshold = 1.00E-11
Integral type ranges set in mkLRange.C for JobNum: 22  <1-6|1-6>
 MakeJK  time:  CPU       0.20 s  wall       0.20 s
Fock build time:  0.20 s (CPU) 0.21 s (wall)
DIIS Errors:  Max 1.41E-04 RMS 1.54E-05

Current DIIS subspace size = 6
REM_GRID_RESTART_DIIS = 0

    6    -153.0143894840      1.54E-05  00000
Finding J and K together
 Job number = 22, Threshold = 1.00E-11
Integral type ranges set in mkLRange.C for JobNum: 22  <1-6|1-6>
 MakeJK  time:  CPU       0.20 s  wall       0.21 s
Fock build time:  0.20 s (CPU) 0.21 s (wall)
DIIS Errors:  Max 1.54E-05 RMS 3.61E-06

Current DIIS subspace size = 7
REM_GRID_RESTART_DIIS = 0

    7    -153.0143895630      3.61E-06  00000
Finding J and K together
 Job number = 22, Threshold = 1.00E-11
Integral type ranges set in mkLRange.C for JobNum: 22  <1-6|1-6>
 MakeJK  time:  CPU       0.20 s  wall       0.20 s
Fock build time:  0.20 s (CPU) 0.20 s (wall)
DIIS Errors:  Max 4.19E-06 RMS 1.00E-06

Current DIIS subspace size = 8
REM_GRID_RESTART_DIIS = 0

    8    -153.0143895648      1.00E-06  00000
Finding J and K together
 Job number = 22, Threshold = 1.00E-11
Integral type ranges set in mkLRange.C for JobNum: 22  <1-6|1-6>
 MakeJK  time:  CPU       0.19 s  wall       0.20 s
Fock build time:  0.19 s (CPU) 0.20 s (wall)
DIIS Errors:  Max 1.02E-06 RMS 1.49E-07

Current DIIS subspace size = 9
REM_GRID_RESTART_DIIS = 0

    9    -153.0143895650      1.49E-07  00000
Finding J and K together
 Job number = 22, Threshold = 1.00E-11
Integral type ranges set in mkLRange.C for JobNum: 22  <1-6|1-6>
 MakeJK  time:  CPU       0.20 s  wall       0.21 s
Fock build time:  0.20 s (CPU) 0.21 s (wall)
DIIS Errors:  Max 4.54E-07 RMS 6.30E-08

Current DIIS subspace size = 10
REM_GRID_RESTART_DIIS = 0

   10    -153.0143895650      6.30E-08  00000
Finding J and K together
 Job number = 22, Threshold = 1.00E-11
Integral type ranges set in mkLRange.C for JobNum: 22  <1-6|1-6>
 MakeJK  time:  CPU       0.19 s  wall       0.19 s
Fock build time:  0.19 s (CPU) 0.19 s (wall)
DIIS Errors:  Max 4.03E-08 RMS 7.58E-09

Current DIIS subspace size = 11
REM_GRID_RESTART_DIIS = 0

   11    -153.0143895650      7.58E-09  00000 Convergence criterion met
 ---------------------------------------
 SCF time:  CPU 2.10 s  wall 2.28 s
 SCF   energy in the final basis set = -153.01438956
 Total energy in the final basis set = -153.01438956
drvman_main.C: 73: calling DrvMan  Calculating analytic gradient of the SCF energy
drvman.C : 218: Calculating analytic gradient of the SCF energy
drvman.C: 244: calling SCF_Grad for normal SCF gradient
 Job number = 111, Threshold = 1.00E-11
Integral type ranges set in mkLRange.C for JobNum: 11  <1-6|7-7>
Finding J and K together
 ML is being used
 Job number = 122, Threshold = 1.00E-11
Integral type ranges set in mkLRange.C for JobNum: 22  <1-6|1-6>
 MakeJK  time:  CPU       0.51 s  wall       0.52 s
 Gradient of SCF Energy
            1           2           3           4           5           6
    1  -0.0006343  -0.0661113   0.0263085   0.0034118   0.0505126  -0.0062057
    2  -0.0568824   0.0110370   0.0143534   0.0192637   0.0238726   0.0011703
    3   0.0234400  -0.0189270  -0.0000194  -0.0072306  -0.0007667  -0.0055555
            7           8           9          10
    1  -0.0008810  -0.0029315  -0.0008083  -0.0026608
    2   0.0132423  -0.0027351   0.0020142  -0.0253361
    3  -0.0057779   0.0027148   0.0003144   0.0118079
 Max gradient component =       6.611E-02
 RMS gradient           =       2.175E-02
drvman.C: 248: out of SCF_Grad for normal SCF gradient
 Gradient time:  CPU 0.52 s  wall 0.55 s
 ------------------------------------------------------------------------------
                     drvman        : Timing summary (seconds)
 ------------------------------------------------------------------------------
     job step          cpu (% of tot)      sys (% of tot)     wall (% of tot)
 ------------------------------------------------------------------------------
 ------------------------------------------------------------------------------
   Grand Totals     0.5240E+00          0.2000E-05          0.5460E+00
 ------------------------------------------------------------------------------
drvman_main.C: 77: out of DrvMan  Time for this dynamics step: 2.7 s (CPU) 2.9 s (wall)

TIME STEP #3 (t = 40.000 a.u. = 0.96755 fs)
--------------------------------------
 Instantaneous Temperature = 266.5 K
 ----------------------------------------------------------------
             Standard Nuclear Orientation (Angstroms)
    I     Atom           X                Y                Z
 ----------------------------------------------------------------
    1      C       4.5937284965     0.2606573088     0.3279723652
    2      C       3.4816581477     0.8363715313    -0.1541686078
    3      H       5.5891992447     0.7910123363     0.3042784495
    4      H       4.6213444219    -0.6835613408     0.7918032512
    5      C       2.1861107489     0.1937875332    -0.0916132567
    6      C       1.0907660998     0.7510872089    -0.5747493317
    7      H       1.0893732941     1.7451341175    -1.0492639715
    8      H       0.1211809317     0.2708216949    -0.4803340437
    9      H       3.5069918309     1.8301964108    -0.5860342032
   10      H       2.1357625608    -0.8196739744     0.3975015144
 ----------------------------------------------------------------
 Nuclear Repulsion Energy =   104.0617929057 hartrees
 There are       15 alpha and       15 beta electrons

                       Distance Matrix (Angstroms)
             C (  1)   C (  2)   H (  3)   H (  4)   C (  5)   C (  6)
   C (  2)  1.341867
   H (  3)  1.128184  2.157304
   H (  4)  1.052355  2.122250  1.829970
   C (  5)  2.444820  1.447505  3.477703  2.735056
   C (  6)  3.650503  2.429100  4.583687  4.048539  1.320524
   H (  7)  4.047339  2.711102  4.794878  4.665073  2.127582  1.101497
   H (  8)  4.545013  3.423308  5.548463  4.772908  2.102611  1.086124
   H (  9)  2.116567  1.083899  2.491616  3.075581  2.160327  2.646271
   H ( 10)  2.685805  2.204146  3.811722  2.520341  1.126442  2.122400
             H (  7)   H (  8)   H (  9)
   H (  8)  1.853288
   H (  9)  2.463067  3.729147
   H ( 10)  3.125108  2.453225  3.141564

 Applying Cartesian multipole field
    Component          Value
    ---------          -----
     (2,0,0)        1.00000E-12
     (0,2,0)        2.00000E-11
     (0,0,2)       -3.00000E-10
 Nucleus-field energy     =    -0.0000000035 hartrees
 ENuRep (before)= 104.0617929057
 ENucField = -0.0000000035
 ENuRep (after) = 104.0617929022
 Job number = 2, Threshold = 1.00E-11
Integral type ranges set in mkLRange.C for JobNum: 2  <1-6|1-6>
Symmetry turned off temporarily
Symmetry turned back on
 Job number = 11, Threshold = 1.00E-11
Integral type ranges set in mkLRange.C for JobNum: 11  <1-6|7-7>
 Smallest overlap matrix eigenvalue = 1.81E-01
 Multipole matrices computed through 2nd order
 Guess from superposition of atomic densities
 Warning:  Energy on first SCF cycle will be non-variational
 SAD guess density has 30.000000 electrons
 SCF convergence criterion is 10**(-8)
 A restricted Hartree-Fock SCF calculation will be
 performed using Pulay DIIS extrapolation
 SCF converges when DIIS error is below 1.0E-08
Finding J and K together
 Job number = 22, Threshold = 1.00E-11
Integral type ranges set in mkLRange.C for JobNum: 22  <1-6|1-6>
 MakeJK  time:  CPU       0.15 s  wall       0.16 s
Fock build time:  0.15 s (CPU) 0.16 s (wall)
DIIS Errors:  Max 1.12E+00 RMS 2.15E-01

Current DIIS subspace size = 1
REM_GRID_RESTART_DIIS = 0

 ---------------------------------------
  Cycle       Energy         DIIS Error
 ---------------------------------------
    1    -152.6168107422      2.15E-01  00000
Finding J and K together
 Job number = 22, Threshold = 1.00E-11
Integral type ranges set in mkLRange.C for JobNum: 22  <1-6|1-6>
 MakeJK  time:  CPU       0.19 s  wall       0.22 s
Fock build time:  0.19 s (CPU) 0.22 s (wall)
DIIS Errors:  Max 6.11E-02 RMS 1.30E-02

Current DIIS subspace size = 2
REM_GRID_RESTART_DIIS = 0

    2    -152.9860721637      1.30E-02  00000
Finding J and K together
 Job number = 22, Threshold = 1.00E-11
Integral type ranges set in mkLRange.C for JobNum: 22  <1-6|1-6>
 MakeJK  time:  CPU       0.19 s  wall       0.20 s
Fock build time:  0.19 s (CPU) 0.20 s (wall)
DIIS Errors:  Max 1.87E-02 RMS 3.55E-03

Current DIIS subspace size = 3
REM_GRID_RESTART_DIIS = 0

    3    -153.0105435422      3.55E-03  00000
Finding J and K together
 Job number = 22, Threshold = 1.00E-11
Integral type ranges set in mkLRange.C for JobNum: 22  <1-6|1-6>
 MakeJK  time:  CPU       0.20 s  wall       0.22 s
Fock build time:  0.20 s (CPU) 0.22 s (wall)
DIIS Errors:  Max 6.78E-03 RMS 1.34E-03

Current DIIS subspace size = 4
REM_GRID_RESTART_DIIS = 0

    4    -153.0123549919      1.34E-03  00000
Finding J and K together
 Job number = 22, Threshold = 1.00E-11
Integral type ranges set in mkLRange.C for JobNum: 22  <1-6|1-6>
 MakeJK  time:  CPU       0.18 s  wall       0.18 s
Fock build time:  0.18 s (CPU) 0.18 s (wall)
DIIS Errors:  Max 8.66E-04 RMS 9.22E-05

Current DIIS subspace size = 5
REM_GRID_RESTART_DIIS = 0

    5    -153.0125416289      9.22E-05  00000
Finding J and K together
 Job number = 22, Threshold = 1.00E-11
Integral type ranges set in mkLRange.C for JobNum: 22  <1-6|1-6>
 MakeJK  time:  CPU       0.17 s  wall       0.19 s
Fock build time:  0.17 s (CPU) 0.19 s (wall)
DIIS Errors:  Max 1.50E-04 RMS 1.69E-05

Current DIIS subspace size = 6
REM_GRID_RESTART_DIIS = 0

    6    -153.0125444714      1.69E-05  00000
Finding J and K together
 Job number = 22, Threshold = 1.00E-11
Integral type ranges set in mkLRange.C for JobNum: 22  <1-6|1-6>
 MakeJK  time:  CPU       0.17 s  wall       0.18 s
Fock build time:  0.18 s (CPU) 0.18 s (wall)
DIIS Errors:  Max 2.04E-05 RMS 4.55E-06

Current DIIS subspace size = 7
REM_GRID_RESTART_DIIS = 0

    7    -153.0125445609      4.55E-06  00000
Finding J and K together
 Job number = 22, Threshold = 1.00E-11
Integral type ranges set in mkLRange.C for JobNum: 22  <1-6|1-6>
 MakeJK  time:  CPU       0.17 s  wall       0.17 s
Fock build time:  0.17 s (CPU) 0.17 s (wall)
DIIS Errors:  Max 4.99E-06 RMS 1.06E-06

Current DIIS subspace size = 8
REM_GRID_RESTART_DIIS = 0

    8    -153.0125445638      1.06E-06  00000
Finding J and K together
 Job number = 22, Threshold = 1.00E-11
Integral type ranges set in mkLRange.C for JobNum: 22  <1-6|1-6>
 MakeJK  time:  CPU       0.18 s  wall       0.18 s
Fock build time:  0.18 s (CPU) 0.18 s (wall)
DIIS Errors:  Max 1.49E-06 RMS 2.13E-07

Current DIIS subspace size = 9
REM_GRID_RESTART_DIIS = 0

    9    -153.0125445640      2.13E-07  00000
Finding J and K together
 Job number = 22, Threshold = 1.00E-11
Integral type ranges set in mkLRange.C for JobNum: 22  <1-6|1-6>
 MakeJK  time:  CPU       0.16 s  wall       0.17 s
Fock build time:  0.16 s (CPU) 0.17 s (wall)
DIIS Errors:  Max 5.65E-07 RMS 7.91E-08

Current DIIS subspace size = 10
REM_GRID_RESTART_DIIS = 0

   10    -153.0125445640      7.91E-08  00000
Finding J and K together
 Job number = 22, Threshold = 1.00E-11
Integral type ranges set in mkLRange.C for JobNum: 22  <1-6|1-6>
 MakeJK  time:  CPU       0.18 s  wall       0.19 s
Fock build time:  0.18 s (CPU) 0.19 s (wall)
DIIS Errors:  Max 3.92E-08 RMS 7.89E-09

Current DIIS subspace size = 11
REM_GRID_RESTART_DIIS = 0

   11    -153.0125445640      7.89E-09  00000 Convergence criterion met
 ---------------------------------------
 SCF time:  CPU 1.97 s  wall 2.08 s
 SCF   energy in the final basis set = -153.01254456
 Total energy in the final basis set = -153.01254456
drvman_main.C: 73: calling DrvMan  Calculating analytic gradient of the SCF energy
drvman.C : 218: Calculating analytic gradient of the SCF energy
drvman.C: 244: calling SCF_Grad for normal SCF gradient
 Job number = 111, Threshold = 1.00E-11
Integral type ranges set in mkLRange.C for JobNum: 11  <1-6|7-7>
Finding J and K together
 ML is being used
 Job number = 122, Threshold = 1.00E-11
Integral type ranges set in mkLRange.C for JobNum: 22  <1-6|1-6>
 MakeJK  time:  CPU       0.45 s  wall       0.45 s
 Gradient of SCF Energy
            1           2           3           4           5           6
    1  -0.0094359  -0.0635843   0.0343411   0.0051603   0.0401322   0.0032019
    2  -0.0699128   0.0142727   0.0168947   0.0278553   0.0337003  -0.0065176
    3   0.0260911  -0.0204610   0.0014053  -0.0104014  -0.0071095  -0.0019718
            7           8           9          10
    1  -0.0016556  -0.0033696  -0.0026326  -0.0021575
    2   0.0163214  -0.0017096   0.0010987  -0.0320032
    3  -0.0070199   0.0031362   0.0010538   0.0152771
 Max gradient component =       6.991E-02
 RMS gradient           =       2.392E-02
drvman.C: 248: out of SCF_Grad for normal SCF gradient
 Gradient time:  CPU 0.46 s  wall 0.47 s
 ------------------------------------------------------------------------------
                     drvman        : Timing summary (seconds)
 ------------------------------------------------------------------------------
     job step          cpu (% of tot)      sys (% of tot)     wall (% of tot)
 ------------------------------------------------------------------------------
 ------------------------------------------------------------------------------
   Grand Totals     0.4640E+00          0.0000E+00          0.4745E+00
 ------------------------------------------------------------------------------
drvman_main.C: 77: out of DrvMan  Time for this dynamics step: 2.5 s (CPU) 2.6 s (wall)

TIME STEP #4 (t = 60.000 a.u. = 1.45133 fs)
--------------------------------------
 Instantaneous Temperature = 228.7 K
 ----------------------------------------------------------------
             Standard Nuclear Orientation (Angstroms)
    I     Atom           X                Y                Z
 ----------------------------------------------------------------
    1      C       4.5924267792     0.2589894647     0.3263384674
    2      C       3.4822177754     0.8372621022    -0.1556537744
    3      H       5.5960702570     0.7884289689     0.3164204331
    4      H       4.6288305943    -0.6790915626     0.7924861479
    5      C       2.1826728113     0.1939538308    -0.0915083657
    6      C       1.0945391976     0.7503269483    -0.5746370109
    7      H       1.0922983516     1.7459462900    -1.0502532215
    8      H       0.1193291548     0.2837631735    -0.4709290543
    9      H       3.4951562433     1.8334365668    -0.5801226847
   10      H       2.1370128974    -0.8222271990     0.4049010672
 ----------------------------------------------------------------
 Nuclear Repulsion Energy =   104.0835057669 hartrees
 There are       15 alpha and       15 beta electrons

                       Distance Matrix (Angstroms)
             C (  1)   C (  2)   H (  3)   H (  4)   C (  5)   C (  6)
   C (  2)  1.341372
   H (  3)  1.134771  2.166474
   H (  4)  1.048148  2.124387  1.820936
   C (  5)  2.446577  1.451474  3.488709  2.743600
   C (  6)  3.645324  2.425719  4.589032  4.050121  1.314153
   H (  7)  4.044372  2.708824  4.802978  4.667286  2.125274  1.103392
   H (  8)  4.543661  3.422686  5.556015  4.781099  2.099860  1.086035
   H (  9)  2.122394  1.082915  2.511906  3.079297  2.156214  2.633651
   H ( 10)  2.684075  2.208552  3.816690  2.525840  1.131871  2.125835
             H (  7)   H (  8)   H (  9)
   H (  8)  1.849396
   H (  9)  2.449980  3.716130
   H ( 10)  3.131201  2.461979  3.141238

 Applying Cartesian multipole field
    Component          Value
    ---------          -----
     (2,0,0)        1.00000E-12
     (0,2,0)        2.00000E-11
     (0,0,2)       -3.00000E-10
 Nucleus-field energy     =    -0.0000000035 hartrees
 ENuRep (before)= 104.0835057669
 ENucField = -0.0000000035
 ENuRep (after) = 104.0835057634
 Job number = 2, Threshold = 1.00E-11
Integral type ranges set in mkLRange.C for JobNum: 2  <1-6|1-6>
Symmetry turned off temporarily
Symmetry turned back on
 Job number = 11, Threshold = 1.00E-11
Integral type ranges set in mkLRange.C for JobNum: 11  <1-6|7-7>
 Smallest overlap matrix eigenvalue = 1.79E-01
 Multipole matrices computed through 2nd order
 Guess from superposition of atomic densities
 Warning:  Energy on first SCF cycle will be non-variational
 SAD guess density has 30.000000 electrons
 SCF convergence criterion is 10**(-8)
 A restricted Hartree-Fock SCF calculation will be
 performed using Pulay DIIS extrapolation
 SCF converges when DIIS error is below 1.0E-08
Finding J and K together
 Job number = 22, Threshold = 1.00E-11
Integral type ranges set in mkLRange.C for JobNum: 22  <1-6|1-6>
 MakeJK  time:  CPU       0.14 s  wall       0.14 s
Fock build time:  0.14 s (CPU) 0.14 s (wall)
DIIS Errors:  Max 1.14E+00 RMS 2.15E-01

Current DIIS subspace size = 1
REM_GRID_RESTART_DIIS = 0

 ---------------------------------------
  Cycle       Energy         DIIS Error
 ---------------------------------------
    1    -152.6184680382      2.15E-01  00000
Finding J and K together
 Job number = 22, Threshold = 1.00E-11
Integral type ranges set in mkLRange.C for JobNum: 22  <1-6|1-6>
 MakeJK  time:  CPU       0.14 s  wall       0.14 s
Fock build time:  0.14 s (CPU) 0.14 s (wall)
DIIS Errors:  Max 6.16E-02 RMS 1.30E-02

Current DIIS subspace size = 2
REM_GRID_RESTART_DIIS = 0

    2    -152.9846283534      1.30E-02  00000
Finding J and K together
 Job number = 22, Threshold = 1.00E-11
Integral type ranges set in mkLRange.C for JobNum: 22  <1-6|1-6>
 MakeJK  time:  CPU       0.14 s  wall       0.14 s
Fock build time:  0.14 s (CPU) 0.14 s (wall)
DIIS Errors:  Max 1.87E-02 RMS 3.56E-03

Current DIIS subspace size = 3
REM_GRID_RESTART_DIIS = 0

    3    -153.0091611630      3.56E-03  00000
Finding J and K together
 Job number = 22, Threshold = 1.00E-11
Integral type ranges set in mkLRange.C for JobNum: 22  <1-6|1-6>
 MakeJK  time:  CPU       0.16 s  wall       0.15 s
Fock build time:  0.16 s (CPU) 0.15 s (wall)
DIIS Errors:  Max 6.84E-03 RMS 1.34E-03

Current DIIS subspace size = 4
REM_GRID_RESTART_DIIS = 0

    4    -153.0109709889      1.34E-03  00000
Finding J and K together
 Job number = 22, Threshold = 1.00E-11
Integral type ranges set in mkLRange.C for JobNum: 22  <1-6|1-6>
 MakeJK  time:  CPU       0.16 s  wall       0.15 s
Fock build time:  0.16 s (CPU) 0.16 s (wall)
DIIS Errors:  Max 8.43E-04 RMS 9.04E-05

Current DIIS subspace size = 5
REM_GRID_RESTART_DIIS = 0

    5    -153.0111574483      9.04E-05  00000
Finding J and K together
 Job number = 22, Threshold = 1.00E-11
Integral type ranges set in mkLRange.C for JobNum: 22  <1-6|1-6>
 MakeJK  time:  CPU       0.17 s  wall       0.17 s
Fock build time:  0.17 s (CPU) 0.17 s (wall)
DIIS Errors:  Max 1.56E-04 RMS 1.82E-05

Current DIIS subspace size = 6
REM_GRID_RESTART_DIIS = 0

    6    -153.0111601289      1.82E-05  00000
Finding J and K together
 Job number = 22, Threshold = 1.00E-11
Integral type ranges set in mkLRange.C for JobNum: 22  <1-6|1-6>
 MakeJK  time:  CPU       0.14 s  wall       0.14 s
Fock build time:  0.14 s (CPU) 0.14 s (wall)
DIIS Errors:  Max 2.40E-05 RMS 5.21E-06

Current DIIS subspace size = 7
REM_GRID_RESTART_DIIS = 0

    7    -153.0111602265      5.21E-06  00000
Finding J and K together
 Job number = 22, Threshold = 1.00E-11
Integral type ranges set in mkLRange.C for JobNum: 22  <1-6|1-6>
 MakeJK  time:  CPU       0.16 s  wall       0.16 s
Fock build time:  0.16 s (CPU) 0.16 s (wall)
DIIS Errors:  Max 5.79E-06 RMS 1.12E-06

Current DIIS subspace size = 8
REM_GRID_RESTART_DIIS = 0

    8    -153.0111602305      1.12E-06  00000
Finding J and K together
 Job number = 22, Threshold = 1.00E-11
Integral type ranges set in mkLRange.C for JobNum: 22  <1-6|1-6>
 MakeJK  time:  CPU       0.13 s  wall       0.13 s
Fock build time:  0.13 s (CPU) 0.13 s (wall)
DIIS Errors:  Max 1.92E-06 RMS 2.73E-07

Current DIIS subspace size = 9
REM_GRID_RESTART_DIIS = 0

    9    -153.0111602307      2.73E-07  00000
Finding J and K together
 Job number = 22, Threshold = 1.00E-11
Integral type ranges set in mkLRange.C for JobNum: 22  <1-6|1-6>
 MakeJK  time:  CPU       0.15 s  wall       0.15 s
Fock build time:  0.15 s (CPU) 0.15 s (wall)
DIIS Errors:  Max 6.01E-07 RMS 8.47E-08

Current DIIS subspace size = 10
REM_GRID_RESTART_DIIS = 0

   10    -153.0111602307      8.47E-08  00000
Finding J and K together
 Job number = 22, Threshold = 1.00E-11
Integral type ranges set in mkLRange.C for JobNum: 22  <1-6|1-6>
 MakeJK  time:  CPU       0.13 s  wall       0.13 s
Fock build time:  0.13 s (CPU) 0.13 s (wall)
DIIS Errors:  Max 3.36E-08 RMS 7.22E-09

Current DIIS subspace size = 11
REM_GRID_RESTART_DIIS = 0

   11    -153.0111602307      7.22E-09  00000 Convergence criterion met
 ---------------------------------------
 SCF time:  CPU 1.63 s  wall 1.65 s
 SCF   energy in the final basis set = -153.01116023
 Total energy in the final basis set = -153.01116023
drvman_main.C: 73: calling DrvMan  Calculating analytic gradient of the SCF energy
drvman.C : 218: Calculating analytic gradient of the SCF energy
drvman.C: 244: calling SCF_Grad for normal SCF gradient
 Job number = 111, Threshold = 1.00E-11
Integral type ranges set in mkLRange.C for JobNum: 11  <1-6|7-7>
Finding J and K together
 ML is being used
 Job number = 122, Threshold = 1.00E-11
Integral type ranges set in mkLRange.C for JobNum: 22  <1-6|1-6>
 MakeJK  time:  CPU       0.43 s  wall       0.43 s
 Gradient of SCF Energy
            1           2           3           4           5           6
    1  -0.0158684  -0.0592452   0.0390295   0.0068460   0.0283859   0.0127494
    2  -0.0766133   0.0169109   0.0176366   0.0325704   0.0403139  -0.0128888
    3   0.0262200  -0.0213521   0.0030276  -0.0117468  -0.0121887   0.0010494
            7           8           9          10
    1  -0.0024397  -0.0036397  -0.0044291  -0.0013886
    2   0.0177793  -0.0005912   0.0003810  -0.0354988
    3  -0.0074883   0.0035307   0.0016711   0.0172773
 Max gradient component =       7.661E-02
 RMS gradient           =       2.520E-02
drvman.C: 248: out of SCF_Grad for normal SCF gradient
 Gradient time:  CPU 0.44 s  wall 0.44 s
 ------------------------------------------------------------------------------
                     drvman        : Timing summary (seconds)
 ------------------------------------------------------------------------------
     job step          cpu (% of tot)      sys (% of tot)     wall (% of tot)
 ------------------------------------------------------------------------------
 ------------------------------------------------------------------------------
   Grand Totals     0.4400E+00          0.1000E-05          0.4449E+00
 ------------------------------------------------------------------------------
drvman_main.C: 77: out of DrvMan  Time for this dynamics step: 2.1 s (CPU) 2.1 s (wall)

TIME STEP #5 (t = 80.000 a.u. = 1.93511 fs)
--------------------------------------
 Instantaneous Temperature = 200.2 K
 ----------------------------------------------------------------
             Standard Nuclear Orientation (Angstroms)
    I     Atom           X                Y                Z
 ----------------------------------------------------------------
    1      C       4.5912786130     0.2580629714     0.3244508512
    2      C       3.4833506914     0.8379890340    -0.1569323265
    3      H       5.5984444378     0.7838135811     0.3282135875
    4      H       4.6355279972    -0.6783744291     0.7945224681
    5      C       2.1789601966     0.1937300298    -0.0912855299
    6      C       1.0981889258     0.7496914066    -0.5745348446
    7      H       1.0955045058     1.7447100013    -1.0503796958
    8      H       0.1178967278     0.2967727732    -0.4619308561
    9      H       3.4838309577     1.8366328232    -0.5744037015
   10      H       2.1384232273    -0.8206903834     0.4103099979
 ----------------------------------------------------------------
 Nuclear Repulsion Energy =   104.1314355583 hartrees
 There are       15 alpha and       15 beta electrons

                       Distance Matrix (Angstroms)
             C (  1)   C (  2)   H (  3)   H (  4)   C (  5)   C (  6)
   C (  2)  1.339981
   H (  3)  1.136139  2.170696
   H (  4)  1.048733  2.128882  1.811807
   C (  5)  2.448725  1.456301  3.495290  2.753170
   C (  6)  3.640268  2.423053  4.590035  4.052957  1.307933
   H (  7)  4.039890  2.705956  4.806278  4.669772  2.121150  1.102949
   H (  8)  4.542140  3.422312  5.558592  4.789424  2.096659  1.085720
   H (  9)  2.127501  1.082392  2.528782  3.086361  2.152956  2.621589
   H ( 10)  2.680966  2.209482  3.814829  2.530495  1.132382  2.125584
             H (  7)   H (  8)   H (  9)
   H (  8)  1.843505
   H (  9)  2.437028  3.703152
   H ( 10)  3.130906  2.468209  3.137061

 Applying Cartesian multipole field
    Component          Value
    ---------          -----
     (2,0,0)        1.00000E-12
     (0,2,0)        2.00000E-11
     (0,0,2)       -3.00000E-10
 Nucleus-field energy     =    -0.0000000035 hartrees
 ENuRep (before)= 104.1314355583
 ENucField = -0.0000000035
 ENuRep (after) = 104.1314355548
 Job number = 2, Threshold = 1.00E-11
Integral type ranges set in mkLRange.C for JobNum: 2  <1-6|1-6>
Symmetry turned off temporarily
Symmetry turned back on
 Job number = 11, Threshold = 1.00E-11
Integral type ranges set in mkLRange.C for JobNum: 11  <1-6|7-7>
 Smallest overlap matrix eigenvalue = 1.77E-01
 Multipole matrices computed through 2nd order
 Guess from superposition of atomic densities
 Warning:  Energy on first SCF cycle will be non-variational
 SAD guess density has 30.000000 electrons
 SCF convergence criterion is 10**(-8)
 A restricted Hartree-Fock SCF calculation will be
 performed using Pulay DIIS extrapolation
 SCF converges when DIIS error is below 1.0E-08
Finding J and K together
 Job number = 22, Threshold = 1.00E-11
Integral type ranges set in mkLRange.C for JobNum: 22  <1-6|1-6>
 MakeJK  time:  CPU       0.11 s  wall       0.11 s
Fock build time:  0.11 s (CPU) 0.11 s (wall)
DIIS Errors:  Max 1.15E+00 RMS 2.15E-01

Current DIIS subspace size = 1
REM_GRID_RESTART_DIIS = 0

 ---------------------------------------
  Cycle       Energy         DIIS Error
 ---------------------------------------
    1    -152.6259200516      2.15E-01  00000
Finding J and K together
 Job number = 22, Threshold = 1.00E-11
Integral type ranges set in mkLRange.C for JobNum: 22  <1-6|1-6>
 MakeJK  time:  CPU       0.16 s  wall       0.16 s
Fock build time:  0.16 s (CPU) 0.16 s (wall)
DIIS Errors:  Max 6.19E-02 RMS 1.30E-02

Current DIIS subspace size = 2
REM_GRID_RESTART_DIIS = 0

    2    -152.9841885983      1.30E-02  00000
Finding J and K together
 Job number = 22, Threshold = 1.00E-11
Integral type ranges set in mkLRange.C for JobNum: 22  <1-6|1-6>
 MakeJK  time:  CPU       0.15 s  wall       0.15 s
Fock build time:  0.15 s (CPU) 0.15 s (wall)
DIIS Errors:  Max 1.87E-02 RMS 3.56E-03

Current DIIS subspace size = 3
REM_GRID_RESTART_DIIS = 0

    3    -153.0087349951      3.56E-03  00000
Finding J and K together
 Job number = 22, Threshold = 1.00E-11
Integral type ranges set in mkLRange.C for JobNum: 22  <1-6|1-6>
 MakeJK  time:  CPU       0.17 s  wall       0.17 s
Fock build time:  0.17 s (CPU) 0.17 s (wall)
DIIS Errors:  Max 6.83E-03 RMS 1.33E-03

Current DIIS subspace size = 4
REM_GRID_RESTART_DIIS = 0

    4    -153.0105374737      1.33E-03  00000
Finding J and K together
 Job number = 22, Threshold = 1.00E-11
Integral type ranges set in mkLRange.C for JobNum: 22  <1-6|1-6>
 MakeJK  time:  CPU       0.18 s  wall       0.18 s
Fock build time:  0.18 s (CPU) 0.20 s (wall)
DIIS Errors:  Max 8.18E-04 RMS 8.84E-05

Current DIIS subspace size = 5
REM_GRID_RESTART_DIIS = 0

    5    -153.0107203707      8.84E-05  00000
Finding J and K together
 Job number = 22, Threshold = 1.00E-11
Integral type ranges set in mkLRange.C for JobNum: 22  <1-6|1-6>
 MakeJK  time:  CPU       0.18 s  wall       0.25 s
Fock build time:  0.18 s (CPU) 0.25 s (wall)
DIIS Errors:  Max 1.58E-04 RMS 1.91E-05

Current DIIS subspace size = 6
REM_GRID_RESTART_DIIS = 0

    6    -153.0107228831      1.91E-05  00000
Finding J and K together
 Job number = 22, Threshold = 1.00E-11
Integral type ranges set in mkLRange.C for JobNum: 22  <1-6|1-6>
 MakeJK  time:  CPU       0.15 s  wall       0.16 s
Fock build time:  0.15 s (CPU) 0.16 s (wall)
DIIS Errors:  Max 2.64E-05 RMS 5.62E-06

Current DIIS subspace size = 7
REM_GRID_RESTART_DIIS = 0

    7    -153.0107229850      5.62E-06  00000
Finding J and K together
 Job number = 22, Threshold = 1.00E-11
Integral type ranges set in mkLRange.C for JobNum: 22  <1-6|1-6>
 MakeJK  time:  CPU       0.15 s  wall       0.16 s
Fock build time:  0.15 s (CPU) 0.16 s (wall)
DIIS Errors:  Max 6.58E-06 RMS 1.18E-06

Current DIIS subspace size = 8
REM_GRID_RESTART_DIIS = 0

    8    -153.0107229897      1.18E-06  00000
Finding J and K together
 Job number = 22, Threshold = 1.00E-11
Integral type ranges set in mkLRange.C for JobNum: 22  <1-6|1-6>
 MakeJK  time:  CPU       0.14 s  wall       0.14 s
Fock build time:  0.14 s (CPU) 0.14 s (wall)
DIIS Errors:  Max 2.29E-06 RMS 3.26E-07

Current DIIS subspace size = 9
REM_GRID_RESTART_DIIS = 0

    9    -153.0107229900      3.26E-07  00000
Finding J and K together
 Job number = 22, Threshold = 1.00E-11
Integral type ranges set in mkLRange.C for JobNum: 22  <1-6|1-6>
 MakeJK  time:  CPU       0.15 s  wall       0.15 s
Fock build time:  0.15 s (CPU) 0.15 s (wall)
DIIS Errors:  Max 5.75E-07 RMS 8.15E-08

Current DIIS subspace size = 10
REM_GRID_RESTART_DIIS = 0

   10    -153.0107229900      8.15E-08  00000
Finding J and K together
 Job number = 22, Threshold = 1.00E-11
Integral type ranges set in mkLRange.C for JobNum: 22  <1-6|1-6>
 MakeJK  time:  CPU       0.14 s  wall       0.14 s
Fock build time:  0.14 s (CPU) 0.14 s (wall)
DIIS Errors:  Max 2.91E-08 RMS 5.85E-09

Current DIIS subspace size = 11
REM_GRID_RESTART_DIIS = 0

   11    -153.0107229900      5.85E-09  00000 Convergence criterion met
 ---------------------------------------
 SCF time:  CPU 1.70 s  wall 1.81 s
 SCF   energy in the final basis set = -153.01072299
 Total energy in the final basis set = -153.01072299
drvman_main.C: 73: calling DrvMan  Calculating analytic gradient of the SCF energy
drvman.C : 218: Calculating analytic gradient of the SCF energy
drvman.C: 244: calling SCF_Grad for normal SCF gradient
 Job number = 111, Threshold = 1.00E-11
Integral type ranges set in mkLRange.C for JobNum: 11  <1-6|7-7>
Finding J and K together
 ML is being used
 Job number = 122, Threshold = 1.00E-11
Integral type ranges set in mkLRange.C for JobNum: 22  <1-6|1-6>
 MakeJK  time:  CPU       0.41 s  wall       0.41 s
 Gradient of SCF Energy
            1           2           3           4           5           6
    1  -0.0198979  -0.0532708   0.0402739   0.0085573   0.0157765   0.0220297
    2  -0.0761661   0.0187647   0.0165912   0.0326093   0.0435154  -0.0176573
    3   0.0235131  -0.0215541   0.0047096  -0.0108242  -0.0157705   0.0033208
            7           8           9          10
    1  -0.0032031  -0.0036943  -0.0061590  -0.0004122
    2   0.0174860   0.0006071  -0.0000118  -0.0357386
    3  -0.0071182   0.0038938   0.0021181   0.0177116
 Max gradient component =       7.617E-02
 RMS gradient           =       2.504E-02
drvman.C: 248: out of SCF_Grad for normal SCF gradient
 Gradient time:  CPU 0.43 s  wall 0.44 s
 ------------------------------------------------------------------------------
                     drvman        : Timing summary (seconds)
 ------------------------------------------------------------------------------
     job step          cpu (% of tot)      sys (% of tot)     wall (% of tot)
 ------------------------------------------------------------------------------
 ------------------------------------------------------------------------------
   Grand Totals     0.4280E+00          0.3000E-05          0.4365E+00
 ------------------------------------------------------------------------------
drvman_main.C: 77: out of DrvMan  Time for this dynamics step: 2.2 s (CPU) 2.3 s (wall)

TIME STEP #6 (t = 100.000 a.u. = 2.41888 fs)
--------------------------------------
 Instantaneous Temperature = 191.0 K
 ----------------------------------------------------------------
             Standard Nuclear Orientation (Angstroms)
    I     Atom           X                Y                Z
 ----------------------------------------------------------------
    1      C       4.5903229898     0.2578735016     0.3223357096
    2      C       3.4849990840     0.8385343886    -0.1580023095
    3      H       5.5961784086     0.7772866116     0.3394641149
    4      H       4.6412394654    -0.6814144132     0.7978059145
    5      C       2.1750949198     0.1930851506    -0.0909100902
    6      C       1.1016254833     0.7492267261    -0.5744648117
    7      H       1.0990797080     1.7414590469    -1.0496860348
    8      H       0.1168899481     0.3097124205    -0.4533812894
    9      H       3.4732152937     1.8398304377    -0.5689287621
   10      H       2.1398810458    -0.8150359021     0.4136782631
 ----------------------------------------------------------------
 Nuclear Repulsion Energy =   104.2042929364 hartrees
 There are       15 alpha and       15 beta electrons

                       Distance Matrix (Angstroms)
             C (  1)   C (  2)   H (  3)   H (  4)   C (  5)   C (  6)
   C (  2)  1.337772
   H (  3)  1.132179  2.169862
   H (  4)  1.054005  2.135581  1.802719
   C (  5)  2.451183  1.461833  3.497188  2.763410
   C (  6)  3.635477  2.421133  4.586617  4.056936  1.302096
   H (  7)  4.033888  2.702403  4.804504  4.672305  2.115307  1.100167
   H (  8)  4.540488  3.422143  5.556063  4.797660  2.093130  1.085144
   H (  9)  2.131870  1.082402  2.541879  3.096598  2.150672  2.610342
   H ( 10)  2.676592  2.206911  3.806178  2.534207  1.127900  2.121631
             H (  7)   H (  8)   H (  9)
   H (  8)  1.835803
   H (  9)  2.424319  3.690465
   H ( 10)  3.124159  2.471709  3.129155

 Applying Cartesian multipole field
    Component          Value
    ---------          -----
     (2,0,0)        1.00000E-12
     (0,2,0)        2.00000E-11
     (0,0,2)       -3.00000E-10
 Nucleus-field energy     =    -0.0000000035 hartrees
 ENuRep (before)= 104.2042929364
 ENucField = -0.0000000035
 ENuRep (after) = 104.2042929329
 Job number = 2, Threshold = 1.00E-11
Integral type ranges set in mkLRange.C for JobNum: 2  <1-6|1-6>
Symmetry turned off temporarily
Symmetry turned back on
 Job number = 11, Threshold = 1.00E-11
Integral type ranges set in mkLRange.C for JobNum: 11  <1-6|7-7>
 Smallest overlap matrix eigenvalue = 1.75E-01
 Multipole matrices computed through 2nd order
 Guess from superposition of atomic densities
 Warning:  Energy on first SCF cycle will be non-variational
 SAD guess density has 30.000000 electrons
 SCF convergence criterion is 10**(-8)
 A restricted Hartree-Fock SCF calculation will be
 performed using Pulay DIIS extrapolation
 SCF converges when DIIS error is below 1.0E-08
Finding J and K together
 Job number = 22, Threshold = 1.00E-11
Integral type ranges set in mkLRange.C for JobNum: 22  <1-6|1-6>
 MakeJK  time:  CPU       0.11 s  wall       0.11 s
Fock build time:  0.11 s (CPU) 0.12 s (wall)
DIIS Errors:  Max 1.16E+00 RMS 2.16E-01

Current DIIS subspace size = 1
REM_GRID_RESTART_DIIS = 0

 ---------------------------------------
  Cycle       Energy         DIIS Error
 ---------------------------------------
    1    -152.6389668813      2.16E-01  00000
Finding J and K together
 Job number = 22, Threshold = 1.00E-11
Integral type ranges set in mkLRange.C for JobNum: 22  <1-6|1-6>
 MakeJK  time:  CPU       0.14 s  wall       0.15 s
Fock build time:  0.14 s (CPU) 0.15 s (wall)
DIIS Errors:  Max 6.22E-02 RMS 1.30E-02

Current DIIS subspace size = 2
REM_GRID_RESTART_DIIS = 0

    2    -152.9847934726      1.30E-02  00000
Finding J and K together
 Job number = 22, Threshold = 1.00E-11
Integral type ranges set in mkLRange.C for JobNum: 22  <1-6|1-6>
 MakeJK  time:  CPU       0.17 s  wall       0.24 s
Fock build time:  0.17 s (CPU) 0.24 s (wall)
DIIS Errors:  Max 1.87E-02 RMS 3.55E-03

Current DIIS subspace size = 3
REM_GRID_RESTART_DIIS = 0

    3    -153.0093027828      3.55E-03  00000
Finding J and K together
 Job number = 22, Threshold = 1.00E-11
Integral type ranges set in mkLRange.C for JobNum: 22  <1-6|1-6>
 MakeJK  time:  CPU       0.18 s  wall       0.24 s
Fock build time:  0.18 s (CPU) 0.24 s (wall)
DIIS Errors:  Max 6.76E-03 RMS 1.31E-03

Current DIIS subspace size = 4
REM_GRID_RESTART_DIIS = 0

    4    -153.0110924236      1.31E-03  00000
Finding J and K together
 Job number = 22, Threshold = 1.00E-11
Integral type ranges set in mkLRange.C for JobNum: 22  <1-6|1-6>
 MakeJK  time:  CPU       0.19 s  wall       0.20 s
Fock build time:  0.19 s (CPU) 0.20 s (wall)
DIIS Errors:  Max 7.91E-04 RMS 8.62E-05

Current DIIS subspace size = 5
REM_GRID_RESTART_DIIS = 0

    5    -153.0112687622      8.62E-05  00000
Finding J and K together
 Job number = 22, Threshold = 1.00E-11
Integral type ranges set in mkLRange.C for JobNum: 22  <1-6|1-6>
 MakeJK  time:  CPU       0.19 s  wall       0.20 s
Fock build time:  0.19 s (CPU) 0.20 s (wall)
DIIS Errors:  Max 1.56E-04 RMS 1.95E-05

Current DIIS subspace size = 6
REM_GRID_RESTART_DIIS = 0

    6    -153.0112711081      1.95E-05  00000
Finding J and K together
 Job number = 22, Threshold = 1.00E-11
Integral type ranges set in mkLRange.C for JobNum: 22  <1-6|1-6>
 MakeJK  time:  CPU       0.19 s  wall       0.20 s
Fock build time:  0.19 s (CPU) 0.20 s (wall)
DIIS Errors:  Max 2.77E-05 RMS 5.83E-06

Current DIIS subspace size = 7
REM_GRID_RESTART_DIIS = 0

    7    -153.0112712102      5.83E-06  00000
Finding J and K together
 Job number = 22, Threshold = 1.00E-11
Integral type ranges set in mkLRange.C for JobNum: 22  <1-6|1-6>
 MakeJK  time:  CPU       0.17 s  wall       0.19 s
Fock build time:  0.17 s (CPU) 0.19 s (wall)
DIIS Errors:  Max 7.32E-06 RMS 1.25E-06

Current DIIS subspace size = 8
REM_GRID_RESTART_DIIS = 0

    8    -153.0112712155      1.25E-06  00000
Finding J and K together
 Job number = 22, Threshold = 1.00E-11
Integral type ranges set in mkLRange.C for JobNum: 22  <1-6|1-6>
 MakeJK  time:  CPU       0.15 s  wall       0.15 s
Fock build time:  0.15 s (CPU) 0.15 s (wall)
DIIS Errors:  Max 2.59E-06 RMS 3.70E-07

Current DIIS subspace size = 9
REM_GRID_RESTART_DIIS = 0

    9    -153.0112712158      3.70E-07  00000
Finding J and K together
 Job number = 22, Threshold = 1.00E-11
Integral type ranges set in mkLRange.C for JobNum: 22  <1-6|1-6>
 MakeJK  time:  CPU       0.16 s  wall       0.16 s
Fock build time:  0.16 s (CPU) 0.16 s (wall)
DIIS Errors:  Max 5.35E-07 RMS 7.66E-08

Current DIIS subspace size = 10
REM_GRID_RESTART_DIIS = 0

   10    -153.0112712159      7.66E-08  00000
Finding J and K together
 Job number = 22, Threshold = 1.00E-11
Integral type ranges set in mkLRange.C for JobNum: 22  <1-6|1-6>
 MakeJK  time:  CPU       0.15 s  wall       0.16 s
Fock build time:  0.15 s (CPU) 0.16 s (wall)
DIIS Errors:  Max 2.63E-08 RMS 5.90E-09

Current DIIS subspace size = 11
REM_GRID_RESTART_DIIS = 0

   11    -153.0112712159      5.90E-09  00000 Convergence criterion met
 ---------------------------------------
 SCF time:  CPU 1.83 s  wall 2.05 s
 SCF   energy in the final basis set = -153.01127122
 Total energy in the final basis set = -153.01127122
drvman_main.C: 73: calling DrvMan  Calculating analytic gradient of the SCF energy
drvman.C : 218: Calculating analytic gradient of the SCF energy
drvman.C: 244: calling SCF_Grad for normal SCF gradient
 Job number = 111, Threshold = 1.00E-11
Integral type ranges set in mkLRange.C for JobNum: 11  <1-6|7-7>
Finding J and K together
 ML is being used
 Job number = 122, Threshold = 1.00E-11
Integral type ranges set in mkLRange.C for JobNum: 22  <1-6|1-6>
 MakeJK  time:  CPU       0.43 s  wall       0.44 s
 Gradient of SCF Energy
            1           2           3           4           5           6
    1  -0.0214954  -0.0458925   0.0380609   0.0103355   0.0028562   0.0306340
    2  -0.0687915   0.0197225   0.0138292   0.0281209   0.0431872  -0.0206471
    3   0.0181585  -0.0210670   0.0063118  -0.0076695  -0.0176522   0.0047085
            7           8           9          10
    1  -0.0039162  -0.0034941  -0.0077923   0.0007038
    2   0.0154355   0.0018664  -0.0000055  -0.0327175
    3  -0.0059035   0.0042201   0.0023722   0.0165211
 Max gradient component =       6.879E-02
 RMS gradient           =       2.338E-02
drvman.C: 248: out of SCF_Grad for normal SCF gradient
 Gradient time:  CPU 0.45 s  wall 0.46 s
 ------------------------------------------------------------------------------
                     drvman        : Timing summary (seconds)
 ------------------------------------------------------------------------------
     job step          cpu (% of tot)      sys (% of tot)     wall (% of tot)
 ------------------------------------------------------------------------------
 ------------------------------------------------------------------------------
   Grand Totals     0.4480E+00          0.2000E-05          0.4627E+00
 ------------------------------------------------------------------------------
drvman_main.C: 77: out of DrvMan  Time for this dynamics step: 2.3 s (CPU) 2.6 s (wall)

TIME STEP #7 (t = 120.000 a.u. = 2.90266 fs)
--------------------------------------
 Instantaneous Temperature = 202.0 K
 ----------------------------------------------------------------
             Standard Nuclear Orientation (Angstroms)
    I     Atom           X                Y                Z
 ----------------------------------------------------------------
    1      C       4.5895753672     0.2583496954     0.3200448563
    2      C       3.4870915565     0.8388888980    -0.1588684367
    3      H       5.5895271438     0.7691662953     0.3499874169
    4      H       4.6457601125    -0.6876943834     0.8019730176
    5      C       2.1712020046     0.1920223690    -0.0903638387
    6      C       1.1047656099     0.7489618375    -0.5744403404
    7      H       1.1031061241     1.7364296771    -1.0483121997
    8      H       0.1162857436     0.3224370271    -0.4453179412
    9      H       3.4634974311     1.8430286861    -0.5637271375
   10      H       2.1412577791    -0.8056118296     0.4151430269
 ----------------------------------------------------------------
 Nuclear Repulsion Energy =   104.3005488849 hartrees
 There are       15 alpha and       15 beta electrons

                       Distance Matrix (Angstroms)
             C (  1)   C (  2)   H (  3)   H (  4)   C (  5)   C (  6)
   C (  2)  1.334861
   H (  3)  1.123269  2.164262
   H (  4)  1.063208  2.143872  1.793720
   C (  5)  2.453847  1.467888  3.494560  2.773735
   C (  6)  3.631075  2.419972  4.579090  4.061667  1.296842
   H (  7)  4.026486  2.698162  4.797793  4.674434  2.108006  1.095285
   H (  8)  4.538745  3.422150  5.548734  4.805438  2.089421  1.084292
   H (  9)  2.135489  1.082942  2.551089  3.109251  2.149400  2.600137
   H ( 10)  2.671201  2.201168  3.791403  2.536942  1.118797  2.114306
             H (  7)   H (  8)   H (  9)
   H (  8)  1.826689
   H (  9)  2.411977  3.678321
   H ( 10)  3.111500  2.472529  3.117980

 Applying Cartesian multipole field
    Component          Value
    ---------          -----
     (2,0,0)        1.00000E-12
     (0,2,0)        2.00000E-11
     (0,0,2)       -3.00000E-10
 Nucleus-field energy     =    -0.0000000035 hartrees
 ENuRep (before)= 104.3005488849
 ENucField = -0.0000000035
 ENuRep (after) = 104.3005488815
 Job number = 2, Threshold = 1.00E-11
Integral type ranges set in mkLRange.C for JobNum: 2  <1-6|1-6>
Symmetry turned off temporarily
Symmetry turned back on
 Job number = 11, Threshold = 1.00E-11
Integral type ranges set in mkLRange.C for JobNum: 11  <1-6|7-7>
 Smallest overlap matrix eigenvalue = 1.73E-01
 Multipole matrices computed through 2nd order
 Guess from superposition of atomic densities
 Warning:  Energy on first SCF cycle will be non-variational
 SAD guess density has 30.000000 electrons
 SCF convergence criterion is 10**(-8)
 A restricted Hartree-Fock SCF calculation will be
 performed using Pulay DIIS extrapolation
 SCF converges when DIIS error is below 1.0E-08
Finding J and K together
 Job number = 22, Threshold = 1.00E-11
Integral type ranges set in mkLRange.C for JobNum: 22  <1-6|1-6>
 MakeJK  time:  CPU       0.11 s  wall       0.16 s
Fock build time:  0.11 s (CPU) 0.16 s (wall)
DIIS Errors:  Max 1.18E+00 RMS 2.17E-01

Current DIIS subspace size = 1
REM_GRID_RESTART_DIIS = 0

 ---------------------------------------
  Cycle       Energy         DIIS Error
 ---------------------------------------
    1    -152.6573722523      2.17E-01  00000
Finding J and K together
 Job number = 22, Threshold = 1.00E-11
Integral type ranges set in mkLRange.C for JobNum: 22  <1-6|1-6>
 MakeJK  time:  CPU       0.17 s  wall       0.18 s
[...]
 ML is being used
 Job number = 122, Threshold = 1.00E-11
Integral type ranges set in mkLRange.C for JobNum: 22  <1-6|1-6>
 MakeJK  time:  CPU       0.46 s  wall       0.46 s
 Gradient of SCF Energy
            1           2           3           4           5           6
    1  -0.0098794  -0.0614870   0.0155067  -0.0091986   0.0839659  -0.0208073
    2  -0.0025246  -0.0049372   0.0050817   0.0030368  -0.0102360   0.0174879
    3   0.0203112  -0.0049051  -0.0123970  -0.0047185  -0.0028144   0.0024201
            7           8           9          10
    1   0.0010046  -0.0022891   0.0112349  -0.0080508
    2   0.0046468  -0.0015285   0.0020111  -0.0130378
    3  -0.0067640  -0.0036579   0.0020490   0.0104766
 Max gradient component =       8.397E-02
 RMS gradient           =       2.110E-02
drvman.C: 248: out of SCF_Grad for normal SCF gradient
 Gradient time:  CPU 0.48 s  wall 0.48 s
 ------------------------------------------------------------------------------
                     drvman        : Timing summary (seconds)
 ------------------------------------------------------------------------------
     job step          cpu (% of tot)      sys (% of tot)     wall (% of tot)
 ------------------------------------------------------------------------------
 ------------------------------------------------------------------------------
   Grand Totals     0.4760E+00          0.2000E-05          0.4777E+00
 ------------------------------------------------------------------------------
drvman_main.C: 77: out of DrvMan  Time for this dynamics step: 1.9 s (CPU) 1.9 s (wall)

TIME STEP #399 (t = 7960.000 a.u. = 192.54319 fs)
--------------------------------------
 Instantaneous Temperature = 231.3 K
 ----------------------------------------------------------------
             Standard Nuclear Orientation (Angstroms)
    I     Atom           X                Y                Z
 ----------------------------------------------------------------
    1      C       4.5291121277    -0.0194744701     0.2092514698
    2      C       3.5242479093     0.6563811461    -0.3078204738
    3      H       5.5838201695     0.1925846503    -0.0978175449
    4      H       4.3262635193    -0.8643883235     0.8321802676
    5      C       2.1691302476     0.3337541067     0.0197941214
    6      C       1.1328294908     1.0781605587    -0.3967745462
    7      H       1.2773805646     1.9335103940    -1.0483072148
    8      H       0.1073132212     0.8151234408    -0.2077626610
    9      H       3.7611056709     1.5149631984    -0.9432992463
   10      H       1.9715786857    -0.5402322841     0.6404303773
 ----------------------------------------------------------------
 Nuclear Repulsion Energy =   104.8076986139 hartrees
 There are       15 alpha and       15 beta electrons

                       Distance Matrix (Angstroms)
             C (  1)   C (  2)   H (  3)   H (  4)   C (  5)   C (  6)
   C (  2)  1.316775
   H (  3)  1.118780  2.121567
   H (  4)  1.069143  2.062903  1.887733
   C (  5)  2.393779  1.431001  3.419630  2.597834
   C (  6)  3.620332  2.429957  4.548070  3.934698  1.342233
   H (  7)  3.996168  2.688455  4.741274  4.545345  2.120207  1.084902
   H (  8)  4.519155  3.422083  5.512873  4.658517  2.129457  1.075452
   H (  9)  2.067052  1.094120  2.405372  3.022093  2.203903  2.719802
   H ( 10)  2.645389  2.177578  3.759032  2.384614  1.089985  2.097258
             H (  7)   H (  8)   H (  9)
   H (  8)  1.823832
   H (  9)  2.520932  3.792227
   H ( 10)  3.074597  2.455994  3.151894

 Applying Cartesian multipole field
    Component          Value
    ---------          -----
     (2,0,0)        1.00000E-12
     (0,2,0)        2.00000E-11
     (0,0,2)       -3.00000E-10
 Nucleus-field energy     =    -0.0000000029 hartrees
 ENuRep (before)= 104.8076986139
 ENucField = -0.0000000029
 ENuRep (after) = 104.8076986110
 Job number = 2, Threshold = 1.00E-11
Integral type ranges set in mkLRange.C for JobNum: 2  <1-6|1-6>
Symmetry turned off temporarily
Symmetry turned back on
 Job number = 11, Threshold = 1.00E-11
Integral type ranges set in mkLRange.C for JobNum: 11  <1-6|7-7>
 Smallest overlap matrix eigenvalue = 1.76E-01
 Multipole matrices computed through 2nd order
 Extrapolating the Fock matrix using 12 points and a 6th-order polynomial
 Alpha Fock matrix extrapolation
 Skip SCF guess (diagonalize extrapolated Fock matrix instead)
 SCF convergence criterion is 10**(-8)
 A restricted Hartree-Fock SCF calculation will be
 performed using Pulay DIIS extrapolation
 SCF converges when DIIS error is below 1.0E-08
Extrapolated Fock matrix used in lieu of Fock build
Fock build time:  0.00 s (CPU) 0.00 s (wall)
DIIS Errors:  Max 2.27E-02 RMS 3.10E-03

Current DIIS subspace size = 1
REM_GRID_RESTART_DIIS = 0

 ---------------------------------------
  Cycle       Energy         DIIS Error
 ---------------------------------------
    1    -309.1872676553      3.10E-03  00000
Finding J and K together
 Job number = 22, Threshold = 1.00E-11
Integral type ranges set in mkLRange.C for JobNum: 22  <1-6|1-6>
 MakeJK  time:  CPU       0.19 s  wall       0.19 s
Fock build time:  0.19 s (CPU) 0.19 s (wall)
DIIS Errors:  Max 3.40E-03 RMS 2.85E-04

Current DIIS subspace size = 2
REM_GRID_RESTART_DIIS = 0

    2    -153.0118217660      2.85E-04  00000
Finding J and K together
 Job number = 22, Threshold = 1.00E-11
Integral type ranges set in mkLRange.C for JobNum: 22  <1-6|1-6>
 MakeJK  time:  CPU       0.19 s  wall       0.19 s
Fock build time:  0.19 s (CPU) 0.19 s (wall)
DIIS Errors:  Max 2.07E-04 RMS 2.02E-05

Current DIIS subspace size = 3
REM_GRID_RESTART_DIIS = 0

    3    -153.0118231722      2.02E-05  00000
Finding J and K together
 Job number = 22, Threshold = 1.00E-11
Integral type ranges set in mkLRange.C for JobNum: 22  <1-6|1-6>
 MakeJK  time:  CPU       0.18 s  wall       0.18 s
Fock build time:  0.18 s (CPU) 0.18 s (wall)
DIIS Errors:  Max 1.86E-05 RMS 2.93E-06

Current DIIS subspace size = 4
REM_GRID_RESTART_DIIS = 0

    4    -153.0118231914      2.93E-06  00000
Finding J and K together
 Job number = 22, Threshold = 1.00E-11
Integral type ranges set in mkLRange.C for JobNum: 22  <1-6|1-6>
 MakeJK  time:  CPU       0.19 s  wall       0.19 s
Fock build time:  0.19 s (CPU) 0.19 s (wall)
DIIS Errors:  Max 8.45E-06 RMS 1.46E-06

Current DIIS subspace size = 5
REM_GRID_RESTART_DIIS = 0

    5    -153.0118231928      1.46E-06  00000
Finding J and K together
 Job number = 22, Threshold = 1.00E-11
Integral type ranges set in mkLRange.C for JobNum: 22  <1-6|1-6>
 MakeJK  time:  CPU       0.17 s  wall       0.17 s
Fock build time:  0.17 s (CPU) 0.17 s (wall)
DIIS Errors:  Max 2.14E-06 RMS 2.73E-07

Current DIIS subspace size = 6
REM_GRID_RESTART_DIIS = 0

    6    -153.0118231932      2.73E-07  00000
Finding J and K together
 Job number = 22, Threshold = 1.00E-11
Integral type ranges set in mkLRange.C for JobNum: 22  <1-6|1-6>
 MakeJK  time:  CPU       0.12 s  wall       0.12 s
Fock build time:  0.12 s (CPU) 0.12 s (wall)
DIIS Errors:  Max 3.63E-07 RMS 6.73E-08

Current DIIS subspace size = 7
REM_GRID_RESTART_DIIS = 0

    7    -153.0118231932      6.73E-08  00000
Finding J and K together
 Job number = 22, Threshold = 1.00E-11
Integral type ranges set in mkLRange.C for JobNum: 22  <1-6|1-6>
 MakeJK  time:  CPU       0.18 s  wall       0.18 s
Fock build time:  0.18 s (CPU) 0.18 s (wall)
DIIS Errors:  Max 1.63E-07 RMS 2.83E-08

Current DIIS subspace size = 8
REM_GRID_RESTART_DIIS = 0

    8    -153.0118231932      2.83E-08  00000
Finding J and K together
 Job number = 22, Threshold = 1.00E-11
Integral type ranges set in mkLRange.C for JobNum: 22  <1-6|1-6>
 MakeJK  time:  CPU       0.17 s  wall       0.17 s
Fock build time:  0.17 s (CPU) 0.17 s (wall)
DIIS Errors:  Max 4.50E-08 RMS 7.52E-09

Current DIIS subspace size = 9
REM_GRID_RESTART_DIIS = 0

    9    -153.0118231932      7.52E-09  00000 Convergence criterion met
 ---------------------------------------
 SCF time:  CPU 1.39 s  wall 1.41 s
 SCF   energy in the final basis set = -153.01182319
 Total energy in the final basis set = -153.01182319
drvman_main.C: 73: calling DrvMan  Calculating analytic gradient of the SCF energy
drvman.C : 218: Calculating analytic gradient of the SCF energy
drvman.C: 244: calling SCF_Grad for normal SCF gradient
 Job number = 111, Threshold = 1.00E-11
Integral type ranges set in mkLRange.C for JobNum: 11  <1-6|7-7>
Finding J and K together
 ML is being used
 Job number = 122, Threshold = 1.00E-11
Integral type ranges set in mkLRange.C for JobNum: 22  <1-6|1-6>
 MakeJK  time:  CPU       0.50 s  wall       0.49 s
 Gradient of SCF Energy
            1           2           3           4           5           6
    1  -0.0285789  -0.0590473   0.0283111  -0.0061262   0.0870590  -0.0312470
    2  -0.0104486  -0.0113226   0.0069519   0.0094866  -0.0231362   0.0229863
    3   0.0292024  -0.0006102  -0.0163743  -0.0096077   0.0065886  -0.0000818
            7           8           9          10
    1  -0.0009975   0.0045431   0.0118741  -0.0057904
    2   0.0005225   0.0011441   0.0078257  -0.0040098
    3  -0.0041818  -0.0060559  -0.0021729   0.0032937
 Max gradient component =       8.706E-02
 RMS gradient           =       2.362E-02
drvman.C: 248: out of SCF_Grad for normal SCF gradient
 Gradient time:  CPU 0.51 s  wall 0.51 s
 ------------------------------------------------------------------------------
                     drvman        : Timing summary (seconds)
 ------------------------------------------------------------------------------
     job step          cpu (% of tot)      sys (% of tot)     wall (% of tot)
 ------------------------------------------------------------------------------
 ------------------------------------------------------------------------------
   Grand Totals     0.5120E+00          0.1000E-05          0.5133E+00
 ------------------------------------------------------------------------------
drvman_main.C: 77: out of DrvMan  Time for this dynamics step: 1.9 s (CPU) 2.0 s (wall)

TIME STEP #400 (t = 7980.000 a.u. = 193.02697 fs)
--------------------------------------
 Instantaneous Temperature = 212.1 K
 ----------------------------------------------------------------
             Standard Nuclear Orientation (Angstroms)
    I     Atom           X                Y                Z
 ----------------------------------------------------------------
    1      C       4.5278246741    -0.0210067912     0.2094594893
    2      C       3.5256376952     0.6554912128    -0.3069105872
    3      H       5.5933703153     0.1880065201    -0.1097022694
    4      H       4.3394886937    -0.8615130350     0.8309499261
    5      C       2.1691206470     0.3333420278     0.0224109936
    6      C       1.1311369785     1.0802102253    -0.3970594431
    7      H       1.2710419765     1.9296719159    -1.0477301721
    8      H       0.1103725755     0.8194100683    -0.2191202715
    9      H       3.7573386580     1.5190639874    -0.9488149688
   10      H       1.9748978308    -0.5337355354     0.6287647891
 ----------------------------------------------------------------
 Nuclear Repulsion Energy =   104.8002030432 hartrees
 There are       15 alpha and       15 beta electrons

                       Distance Matrix (Angstroms)
             C (  1)   C (  2)   H (  3)   H (  4)   C (  5)   C (  6)
   C (  2)  1.314788
   H (  3)  1.131785  2.129073
   H (  4)  1.062154  2.063585  1.886408
   C (  5)  2.392496  1.432610  3.429878  2.606130
   C (  6)  3.621882  2.433546  4.559619  3.946114  1.345800
   H (  7)  3.999038  2.693613  4.753506  4.553627  2.121324  1.079134
   H (  8)  4.517064  3.420323  5.520318  4.670500  2.129094  1.068475
   H (  9)  2.075347  1.100675  2.418023  3.028797  2.207182  2.719184
   H ( 10)  2.637450  2.166689  3.762923  2.395748  1.075737  2.090232
             H (  7)   H (  8)   H (  9)
   H (  8)  1.807327
   H (  9)  2.521915  3.784486
   H ( 10)  3.061768  2.454866  3.143221

 Applying Cartesian multipole field
    Component          Value
    ---------          -----
     (2,0,0)        1.00000E-12
     (0,2,0)        2.00000E-11
     (0,0,2)       -3.00000E-10
 Nucleus-field energy     =    -0.0000000029 hartrees
 ENuRep (before)= 104.8002030432
 ENucField = -0.0000000029
 ENuRep (after) = 104.8002030403
 Job number = 2, Threshold = 1.00E-11
Integral type ranges set in mkLRange.C for JobNum: 2  <1-6|1-6>
Symmetry turned off temporarily
Symmetry turned back on
 Job number = 11, Threshold = 1.00E-11
Integral type ranges set in mkLRange.C for JobNum: 11  <1-6|7-7>
 Smallest overlap matrix eigenvalue = 1.75E-01
 Multipole matrices computed through 2nd order
 Extrapolating the Fock matrix using 12 points and a 6th-order polynomial
 Alpha Fock matrix extrapolation
 Skip SCF guess (diagonalize extrapolated Fock matrix instead)
 SCF convergence criterion is 10**(-8)
 A restricted Hartree-Fock SCF calculation will be
 performed using Pulay DIIS extrapolation
 SCF converges when DIIS error is below 1.0E-08
Extrapolated Fock matrix used in lieu of Fock build
Fock build time:  0.00 s (CPU) 0.00 s (wall)
DIIS Errors:  Max 2.27E-02 RMS 2.79E-03

Current DIIS subspace size = 1
REM_GRID_RESTART_DIIS = 0

 ---------------------------------------
  Cycle       Energy         DIIS Error
 ---------------------------------------
    1    -309.1807912534      2.79E-03  00000
Finding J and K together
 Job number = 22, Threshold = 1.00E-11
Integral type ranges set in mkLRange.C for JobNum: 22  <1-6|1-6>
 MakeJK  time:  CPU       0.19 s  wall       0.19 s
Fock build time:  0.19 s (CPU) 0.19 s (wall)
DIIS Errors:  Max 8.25E-03 RMS 6.57E-04

Current DIIS subspace size = 2
REM_GRID_RESTART_DIIS = 0

    2    -153.0103216796      6.57E-04  00000
Finding J and K together
 Job number = 22, Threshold = 1.00E-11
Integral type ranges set in mkLRange.C for JobNum: 22  <1-6|1-6>
 MakeJK  time:  CPU       0.19 s  wall       0.19 s
Fock build time:  0.19 s (CPU) 0.19 s (wall)
DIIS Errors:  Max 1.13E-03 RMS 9.24E-05

Current DIIS subspace size = 3
REM_GRID_RESTART_DIIS = 0

    3    -153.0103286766      9.24E-05  00000
Finding J and K together
 Job number = 22, Threshold = 1.00E-11
Integral type ranges set in mkLRange.C for JobNum: 22  <1-6|1-6>
 MakeJK  time:  CPU       0.19 s  wall       0.20 s
Fock build time:  0.19 s (CPU) 0.20 s (wall)
DIIS Errors:  Max 2.54E-05 RMS 4.01E-06

Current DIIS subspace size = 4
REM_GRID_RESTART_DIIS = 0

    4    -153.0103288561      4.01E-06  00000
Finding J and K together
 Job number = 22, Threshold = 1.00E-11
Integral type ranges set in mkLRange.C for JobNum: 22  <1-6|1-6>
 MakeJK  time:  CPU       0.16 s  wall       0.18 s
Fock build time:  0.16 s (CPU) 0.18 s (wall)
DIIS Errors:  Max 1.13E-05 RMS 2.20E-06

Current DIIS subspace size = 5
REM_GRID_RESTART_DIIS = 0

    5    -153.0103288588      2.20E-06  00000
Finding J and K together
 Job number = 22, Threshold = 1.00E-11
Integral type ranges set in mkLRange.C for JobNum: 22  <1-6|1-6>
 MakeJK  time:  CPU       0.16 s  wall       0.18 s
Fock build time:  0.16 s (CPU) 0.18 s (wall)
DIIS Errors:  Max 2.58E-06 RMS 4.50E-07

Current DIIS subspace size = 6
REM_GRID_RESTART_DIIS = 0

    6    -153.0103288593      4.50E-07  00000
Finding J and K together
 Job number = 22, Threshold = 1.00E-11
Integral type ranges set in mkLRange.C for JobNum: 22  <1-6|1-6>
 MakeJK  time:  CPU       0.18 s  wall       0.19 s
Fock build time:  0.18 s (CPU) 0.19 s (wall)
DIIS Errors:  Max 7.77E-07 RMS 1.21E-07

Current DIIS subspace size = 7
REM_GRID_RESTART_DIIS = 0

    7    -153.0103288594      1.21E-07  00000
Finding J and K together
 Job number = 22, Threshold = 1.00E-11
Integral type ranges set in mkLRange.C for JobNum: 22  <1-6|1-6>
 MakeJK  time:  CPU       0.15 s  wall       0.15 s
Fock build time:  0.15 s (CPU) 0.15 s (wall)
DIIS Errors:  Max 2.28E-07 RMS 4.86E-08

Current DIIS subspace size = 8
REM_GRID_RESTART_DIIS = 0

    8    -153.0103288594      4.86E-08  00000
Finding J and K together
 Job number = 22, Threshold = 1.00E-11
Integral type ranges set in mkLRange.C for JobNum: 22  <1-6|1-6>
 MakeJK  time:  CPU       0.17 s  wall       0.21 s
Fock build time:  0.17 s (CPU) 0.21 s (wall)
DIIS Errors:  Max 4.92E-08 RMS 7.94E-09

Current DIIS subspace size = 9
REM_GRID_RESTART_DIIS = 0

    9    -153.0103288594      7.94E-09  00000 Convergence criterion met
 ---------------------------------------
 SCF time:  CPU 1.40 s  wall 1.50 s
 SCF   energy in the final basis set = -153.01032886
 Total energy in the final basis set = -153.01032886
drvman_main.C: 73: calling DrvMan  Calculating analytic gradient of the SCF energy
drvman.C : 218: Calculating analytic gradient of the SCF energy
drvman.C: 244: calling SCF_Grad for normal SCF gradient
 Job number = 111, Threshold = 1.00E-11
Integral type ranges set in mkLRange.C for JobNum: 11  <1-6|7-7>
Finding J and K together
 ML is being used
 Job number = 122, Threshold = 1.00E-11
Integral type ranges set in mkLRange.C for JobNum: 22  <1-6|1-6>
 MakeJK  time:  CPU       0.43 s  wall       0.46 s
 Gradient of SCF Energy
            1           2           3           4           5           6
    1  -0.0435340  -0.0545664   0.0373459  -0.0032937   0.0872007  -0.0397358
    2  -0.0161768  -0.0166335   0.0078989   0.0147136  -0.0364042   0.0280228
    3   0.0360610   0.0029422  -0.0193029  -0.0136174   0.0163564  -0.0026623
            7           8           9          10
    1  -0.0030458   0.0107851   0.0119145  -0.0030706
    2  -0.0038283   0.0036581   0.0125716   0.0061778
    3  -0.0013810  -0.0081792  -0.0056686  -0.0045482
 Max gradient component =       8.720E-02
 RMS gradient           =       2.655E-02
drvman.C: 248: out of SCF_Grad for normal SCF gradient
 Gradient time:  CPU 0.45 s  wall 0.48 s
 ------------------------------------------------------------------------------
                     drvman        : Timing summary (seconds)
 ------------------------------------------------------------------------------
     job step          cpu (% of tot)      sys (% of tot)     wall (% of tot)
 ------------------------------------------------------------------------------
 ------------------------------------------------------------------------------
   Grand Totals     0.4520E+00          0.4000E-05          0.4835E+00
 ------------------------------------------------------------------------------
drvman_main.C: 77: out of DrvMan  Time for this dynamics step: 1.9 s (CPU) 2.0 s (wall)

=============== TIME STEPS COMPLETED ==================

Step-to-Step energy fluctuations, |E(n) - E(n-1)|
Mean: 1.189e-07   Max: 6.732e-05   RMS: 3.166e-05
Overall energy fluctuations, |E(n) - E(0)|
Mean: 8.133e-05   Max: 1.888e-04   RMS: 4.714e-05   RMS(dE)/RMS(dV): 2.113e-02
Kinetic energy fluctuations, |T(n) - V(0)|
Mean: -5.341e-03   Max: 1.132e-02   RMS: 2.194e-03
Potential energy fluctuations, |V(n) - V(0)|
Mean: 5.422e-03   Max: 1.151e-02   RMS: 2.231e-03


 JobOver = TRUE
Archival summary:
1\1\qciep03\JobtypUnspecified\HF\STO-3G\46\jcartus\MonJun1812:39:342018MonJun1812:39:342018\0\\#,JobtypUnspecified,HF,STO-3G,\\0,1\C\H,1,1.10067\C,1,1.31479,2,118.182\H,3,1.06215,1,120.119,2,-179.815,0\H,3,1.13179,1,120.788,2,-8.30876,0\C,1,1.43261,2,120.652,3,176.109,0\H,6,1.07574,1,118.802,2,178.258,0\C,6,1.3458,1,122.267,2,-1.95711,0\H,8,1.06848,6,123.331,1,175.63,0\H,8,1.07913,6,121.654,1,3.35187,0\\HF=-153.010329\\@

 Total job time:  802.60s(wall), 771.82s(cpu) 
 Mon Jun 18 12:39:34 2018

        *************************************************************
        *                                                           *
        *  Thank you very much for using Q-Chem.  Have a nice day.  *
        *                                                           *
        *************************************************************


*** MISSION COMPLETED -- STARFLEET OUT ***

0 sent ACK to 0 
now end server 0 ... 
