This is a multi-thread run using 8 threads
/usr/local/qchem/bin/parallel.csh,  , butadien400.inp, 1, 0, /home/jcartus/scratch/qchem7685/
MPIRUN in parallel.csh is mpirun
P4_RSHCOMMAND in parallel.csh is ssh
QCOUTFILE is stdout
Q-Chem machineFile is /usr/local/qchem/bin/mpi/machines 
Process 0 of 1 is on qciep03 - thread support 0
initial socket setup ...start
initial socket setup ...done 
now start server 0 ... 
qciep03.tugraz.at 127.0.1
Q-Chem Developer Version! Running on 127.0.1.*
                  Welcome to Q-Chem
     A Quantum Leap Into The Future Of Chemistry


 Q-Chem 5.0, Q-Chem, Inc., Pleasanton, CA (2017)

 Yihan Shao,  Zhengting Gan,  E. Epifanovsky,  A. T. B. Gilbert,  M. Wormit,  
 J. Kussmann,  A. W. Lange,  A. Behn,  Jia Deng,  Xintian Feng,  D. Ghosh,  
 M. Goldey,  P. R. Horn,  L. D. Jacobson,  I. Kaliman,  T. Kus,  A. Landau,  
 Jie Liu,  E. I. Proynov,  R. M. Richard,  R. P. Steele,  E. J. Sundstrom,  
 H. L. Woodcock III,  P. M. Zimmerman,  D. Zuev,  B. Albrecht,  E. Alguire,  
 S. A. Baeppler,  D. Barton,  Z. Benda,  Y. A. Bernard,  E. J. Berquist,  
 K. B. Bravaya,  H. Burton,  D. Casanova,  Chun-Min Chang,  Yunqing Chen,  
 A. Chien,  K. D. Closser,  M. P. Coons,  S. Dasgupta,  A. L. Dempwolff,  
 M. Diedenhofen,  Hainam Do,  R. G. Edgar,  Po-Tung Fang,  S. Fatehi,  
 Qingguo Feng,  J. Fosso-Tande,  Qinghui Ge,  A. Ghysels,  G. Gidofalvi,  
 J. Gomes,  J. Gonthier,  A. Gunina,  M. W. D. Hanson-Heine,  
 P. H. P. Harbach,  A. W. Hauser,  J. E. Herr,  E. G. Hohenstein,  
 Z. C. Holden,  Kerwin Hui,  T.-C. Jagau,  Hyunjun Ji,  B. Kaduk,  
 K. Khistyaev,  Jaehoon Kim,  P. Klunzinger,  K. Koh,  D. Kosenkov,  
 L. Koulias,  T. Kowalczyk,  C. M. Krauter,  A. Kunitsa,  Ka Un Lao,  
 A. Laurent,  K. V. Lawler,  Joonho Lee,  D. Lefrancois,  S. Lehtola,  
 D. S. Levine,  Yi-Pei Li,  You-Sheng Lin,  Fenglai Liu,  E. Livshits,  
 A. Luenser,  P. Manohar,  E. Mansoor,  S. F. Manzer,  Shan-Ping Mao,  
 Yuezhi Mao,  N. Mardirossian,  A. V. Marenich,  T. Markovich,  
 L. A. Martinez-Martinez,  S. A. Maurer,  N. J. Mayhall,  S. C. McKenzie,  
 J.-M. Mewes,  A. F. Morrison,  J. W. Mullinax,  K. Nanda,  
 T. S. Nguyen-Beck,  R. Olivares-Amaya,  J. A. Parkhill,  T. M. Perrine,  
 F. Plasser,  S. Prager,  A. Prociuk,  E. Ramos,  D. R. Rehn,  F. Rob,  
 M. Schneider,  N. Sergueev,  S. M. Sharada,  S. Sharma,  D. W. Small,  
 T. Stauch,  T. Stein,  Yu-Chuan Su,  A. J. W. Thom,  A. Tkatchenko,  
 T. Tsuchimochi,  L. Vogt,  O. Vydrov,  M. A. Watson,  J. Wenzel,  
 M. de Wergifosse,  T. A. Wesolowski,  A. White,  J. Witte,  A. Yamada,  
 Jun Yang,  K. Yao,  S. Yeganeh,  S. R. Yost,  Zhi-Qiang You,  A. Zech,  
 Igor Ying Zhang,  Xing Zhang,  Yan Zhao,  Ying Zhu,  B. R. Brooks,  
 G. K. L. Chan,  C. J. Cramer,  M. S. Gordon,  W. J. Hehre,  A. Klamt,  
 M. W. Schmidt,  C. D. Sherrill,  D. G. Truhlar,  A. Aspuru-Guzik,  R. Baer,  
 A. T. Bell,  N. A. Besley,  Jeng-Da Chai,  R. A. DiStasio Jr.,  A. Dreuw,  
 B. D. Dunietz,  T. R. Furlani,  Chao-Ping Hsu,  Yousung Jung,  Jing Kong,  
 D. S. Lambrecht,  WanZhen Liang,  C. Ochsenfeld,  V. A. Rassolov,  
 L. V. Slipchenko,  J. E. Subotnik,  T. Van Voorhis,  J. M. Herbert,  
 A. I. Krylov,  P. M. W. Gill,  M. Head-Gordon

 Contributors to earlier versions of Q-Chem not listed above: 
 R. D. Adamson,  B. Austin,  J. Baker,  G. J. O. Beran,  K. Brandhorst,  
 S. T. Brown,  E. F. C. Byrd,  A. K. Chakraborty,  C.-L. Cheng,  
 Siu Hung Chien,  D. M. Chipman,  D. L. Crittenden,  H. Dachsel,  
 R. J. Doerksen,  A. D. Dutoi,  L. Fusti-Molnar,  W. A. Goddard III,  
 A. Golubeva-Zadorozhnaya,  S. R. Gwaltney,  G. Hawkins,  A. Heyden,  
 S. Hirata,  G. Kedziora,  F. J. Keil,  C. Kelley,  Jihan Kim,  R. A. King,  
 R. Z. Khaliullin,  P. P. Korambath,  W. Kurlancheek,  A. M. Lee,  M. S. Lee,  
 S. V. Levchenko,  Ching Yeh Lin,  D. Liotard,  R. C. Lochan,  I. Lotan,  
 P. E. Maslen,  N. Nair,  D. P. O'Neill,  D. Neuhauser,  E. Neuscamman,  
 C. M. Oana,  R. Olson,  B. Peters,  R. Peverati,  P. A. Pieniazek,  
 Y. M. Rhee,  J. Ritchie,  M. A. Rohrdanz,  E. Rosta,  N. J. Russ,  
 H. F. Schaefer III,  N. E. Schultz,  N. Shenvi,  A. C. Simmonett,  A. Sodt,  
 D. Stuck,  K. S. Thanthiriwatte,  V. Vanovschi,  Tao Wang,  A. Warshel,  
 C. F. Williams,  Q. Wu,  X. Xu,  W. Zhang

 Please cite Q-Chem as follows:
 Y. Shao et al., Mol. Phys. 113, 184-215 (2015)
 DOI: 10.1080/00268976.2014.952696

 Q-Chem 5.0.2 for Intel X86 EM64T Linux

 Parts of Q-Chem use Armadillo 5.200.1 (Boston Tea Smuggler).
 http://arma.sourceforge.net/

 Q-Chem begins on Thu May 31 00:17:04 2018  


Host: 0

     Scratch files written to /home/jcartus/scratch/qchem7685//
 Using version located at /usr/local/qchem/bin/qchem

 Parallel job on  1  processors
Symmetry disabled for AIMD jobs.

Total Memory Limit in MB = 2000
Mega-Array Size in MB = 192

Checking the input file for inconsistencies... 	...done.
Finally everything over in PARseQInput

--------------------------------------------------------------
User input:
--------------------------------------------------------------
$rem
   JOBTYPE              aimd
   AIMD_METHOD          bomd
   METHOD               hf
   BASIS                sto-3g
   TIME_STEP            20        (20 a.u. = 0.48 fs) 
   AIMD_STEPS           400
   AIMD_INIT_VELOC      thermal
   AIMD_TEMP            400
   MAX_SCF_CYCLES       100
   FOCK_EXTRAP_ORDER    6         
   FOCK_EXTRAP_POINTS   12
$end





$molecule
   0 1
   C        4.33091        1.98230        0.00000
   C        3.21425        1.24567        0.00000
   H        4.30836        3.06736        0.00000
   H        5.30544        1.50418        0.00000
   C        1.89367        1.82420        0.00000
   C        0.77642        1.08809        0.00000
   H        0.79858        0.00302        0.00000
   H       -0.19786        1.56668        0.00000
   H        3.29578        0.16068        0.00000
   H        1.81231        2.90922        0.00000
$end


--------------------------------------------------------------
 ----------------------------------------------------------------
             Standard Nuclear Orientation (Angstroms)
    I     Atom           X                Y                Z
 ----------------------------------------------------------------
    1      C       4.3309100000     1.9823000000     0.0000000000
    2      C       3.2142500000     1.2456700000     0.0000000000
    3      H       4.3083600000     3.0673600000     0.0000000000
    4      H       5.3054400000     1.5041800000     0.0000000000
    5      C       1.8936700000     1.8242000000     0.0000000000
    6      C       0.7764200000     1.0880900000     0.0000000000
    7      H       0.7985800000     0.0030200000     0.0000000000
    8      H      -0.1978600000     1.5666800000     0.0000000000
    9      H       3.2957800000     0.1606800000     0.0000000000
   10      H       1.8123100000     2.9092200000     0.0000000000
 ----------------------------------------------------------------
 Nuclear Repulsion Energy =   104.1569203501 hartrees
 There are       15 alpha and       15 beta electrons
 Requested basis set is STO-3G
 There are 14 shells and 26 basis functions

 Total QAlloc Memory Limit   2000 MB
 Mega-Array Size       188 MB
 MEM_STATIC part       192 MB

finished with qalloc call

                       Distance Matrix (Angstroms)
             C (  1)   C (  2)   H (  3)   H (  4)   C (  5)   C (  6)
   C (  2)  1.337742
   H (  3)  1.085294  2.125001
   H (  4)  1.085499  2.107108  1.854104
   C (  5)  2.442362  1.441745  2.715911  3.426746
   C (  6)  3.665244  2.442918  4.048717  4.548093  1.337948
   H (  7)  4.049062  2.716549  4.659263  4.750291  2.125069  1.085296
   H (  8)  4.547801  3.427177  4.749533  5.503655  2.107324  1.085481
   H (  9)  2.095183  1.088049  3.078004  2.417380  2.175594  2.684635
   H ( 10)  2.683752  2.175508  2.501055  3.765115  1.088066  2.095133
             H (  7)   H (  8)   H (  9)
   H (  8)  1.854164
   H (  9)  2.502172  3.765947
   H ( 10)  3.077929  2.417271  3.123324

 Job number = 2, Threshold = 1.00E-11
Integral type ranges set in mkLRange.C for JobNum: 2  <1-6|1-6>
Symmetry turned off temporarily
 Using the largest function pair in Schwarz integrals
Total number of integrals generated =            3252
Symmetry turned back on
 A cutoff of  1.0D-11 yielded    102 shell pairs
 There are       372 function pairs
 Job number = 11, Threshold = 1.00E-11
Integral type ranges set in mkLRange.C for JobNum: 11  <1-6|7-7>
Total number of integrals generated =            3720
 Smallest overlap matrix eigenvalue = 1.84E-01
 Multipole matrices computed through 2nd order

 Scale SEOQF with 1.000000e-02/1.000000e-01/1.000000e+00

 Standard Electronic Orientation quadrupole field applied
 Nucleus-field energy     =     0.0000000068 hartrees
 ENuRep (before)= 104.1569203501
 ENucField = 0.0000000068
 ENuRep (after) = 104.1569203570
 Guess from superposition of atomic densities
 Warning:  Energy on first SCF cycle will be non-variational
 SAD guess density has 30.000000 electrons

 ==================================================
    GEN_SCFMAN: A general SCF calculation manager  
                                                   
    Authors:                                       
        -- Eric Jon Sundstrom 2008-2014            
        -- Paul Horn 2010-2015                     
        -- Yuezhi Mao 2012-                        
        -- Dmitri Zuev 2014                        
        -- Alec White 2015-                        
        -- David Stuck 2015                        
        -- Shaama M.S. 2015                        
        -- Shane Yost 2015-                         
        -- Joonho Lee 2016-                        
        -- David Small 2016-                       
        -- Daniel Levine 2016-                     
        -- Susi Lehtola 2017-                      
        -- Hugh Burton 2017-                       
 ==================================================
 Hartree-Fock
Finding J and K together
 Job number = 22, Threshold = 1.00E-11
Integral type ranges set in mkLRange.C for JobNum: 22  <1-6|1-6>
 MakeJK  time:  CPU       0.08 s  wall       0.08 s
 A restricted SCF calculation will be
 performed using DIIS
 SCF converges when DIIS error is below 1.0e-08
 ---------------------------------------
  Cycle       Energy         DIIS error
 ---------------------------------------
Finding J and K together
 Job number = 22, Threshold = 1.00E-11
Integral type ranges set in mkLRange.C for JobNum: 22  <1-6|1-6>
 MakeJK  time:  CPU       0.09 s  wall       0.09 s
    1    -152.6466601402      2.15e-01  
Finding J and K together
 Job number = 22, Threshold = 1.00E-11
Integral type ranges set in mkLRange.C for JobNum: 22  <1-6|1-6>
 MakeJK  time:  CPU       0.10 s  wall       0.09 s
    2    -152.9904344671      1.29e-02  
Finding J and K together
 Job number = 22, Threshold = 1.00E-11
Integral type ranges set in mkLRange.C for JobNum: 22  <1-6|1-6>
 MakeJK  time:  CPU       0.09 s  wall       0.09 s
    3    -153.0145653436      3.50e-03  
Finding J and K together
 Job number = 22, Threshold = 1.00E-11
Integral type ranges set in mkLRange.C for JobNum: 22  <1-6|1-6>
 MakeJK  time:  CPU       0.09 s  wall       0.09 s
    4    -153.0163550446      1.28e-03  
Finding J and K together
 Job number = 22, Threshold = 1.00E-11
Integral type ranges set in mkLRange.C for JobNum: 22  <1-6|1-6>
 MakeJK  time:  CPU       0.10 s  wall       0.09 s
    5    -153.0165260743      9.61e-05  
Finding J and K together
 Job number = 22, Threshold = 1.00E-11
Integral type ranges set in mkLRange.C for JobNum: 22  <1-6|1-6>
 MakeJK  time:  CPU       0.09 s  wall       0.09 s
    6    -153.0165292683      1.29e-05  
Finding J and K together
 Job number = 22, Threshold = 1.00E-11
Integral type ranges set in mkLRange.C for JobNum: 22  <1-6|1-6>
 MakeJK  time:  CPU       0.09 s  wall       0.09 s
    7    -153.0165293284      1.48e-06  
Finding J and K together
 Job number = 22, Threshold = 1.00E-11
Integral type ranges set in mkLRange.C for JobNum: 22  <1-6|1-6>
 MakeJK  time:  CPU       0.09 s  wall       0.09 s
    8    -153.0165293289      1.07e-07  
Finding J and K together
 Job number = 22, Threshold = 1.00E-11
Integral type ranges set in mkLRange.C for JobNum: 22  <1-6|1-6>
 MakeJK  time:  CPU       0.09 s  wall       0.09 s
    9    -153.0165293289      3.40e-08  
Finding J and K together
 Job number = 22, Threshold = 1.00E-11
Integral type ranges set in mkLRange.C for JobNum: 22  <1-6|1-6>
 MakeJK  time:  CPU       0.09 s  wall       0.09 s
   10    -153.0165293289      1.43e-08  
   11    -153.0165293289      3.68e-09  Convergence criterion met
 ---------------------------------------
 SCF time:   CPU 1.02s  wall 1.00s 
 Total energy in the final basis set =     -153.0165293289
Wall  1 = 1
Clock 1 = 1.0215530396
 ==================================================
                  Done GEN_SCFMAN                  
 ==================================================

Symmetry turned off temporarily

 --------------------------------------------------------------

                    Orbital Energies (a.u.)
 --------------------------------------------------------------

 Alpha MOs
 -- Occupied --
-11.031 -11.030 -11.016 -11.016  -1.036  -0.942  -0.772  -0.708
 -0.591  -0.591  -0.498  -0.491  -0.443  -0.399  -0.261
 -- Virtual --
  0.243   0.421   0.593   0.674   0.684   0.697   0.699   0.880
  0.910   1.025   1.078
 --------------------------------------------------------------

          Ground-State Mulliken Net Atomic Charges

     Atom                 Charge (a.u.)
  ----------------------------------------
      1 C                    -0.124579
      2 C                    -0.059607
      3 H                     0.060788
      4 H                     0.060917
      5 C                    -0.059564
      6 C                    -0.124605
      7 H                     0.060760
      8 H                     0.060924
      9 H                     0.062505
     10 H                     0.062461
  ----------------------------------------
  Sum of atomic charges =     0.000000

 -----------------------------------------------------------------
                    Cartesian Multipole Moments
 -----------------------------------------------------------------
    Charge (ESU x 10^10)
                -0.0000
    Dipole Moment (Debye)
         X       0.0004      Y       0.0001      Z       0.0000
       Tot       0.0004
    Quadrupole Moments (Debye-Ang)
        XX     -22.6930     XY      -0.0707     YY     -22.0679
        XZ      -0.0000     YZ      -0.0000     ZZ     -25.1541
    Octopole Moments (Debye-Ang^2)
       XXX    -173.8687    XXY     -35.1998    XYY     -56.5749
       YYY    -101.6294    XXZ      -0.0000    XYZ      -0.0000
       YYZ      -0.0000    XZZ     -64.2383    YZZ     -38.6138
       ZZZ       0.0000
    Hexadecapole Moments (Debye-Ang^3)
      XXXX   -1200.0682   XXXY    -296.9042   XXYY    -263.8042
      XYYY    -282.6504   YYYY    -378.3209   XXXZ      -0.0000
      XXYZ      -0.0000   XYYZ      -0.0000   YYYZ      -0.0000
      XXZZ    -225.6125   XYZZ    -107.2463   YYZZ     -75.6460
      XZZZ      -0.0000   YZZZ      -0.0000   ZZZZ     -20.3529
 -----------------------------------------------------------------
drvman_main.C: 73: calling DrvMan  Calculating analytic gradient of the SCF energy
drvman.C : 218: Calculating analytic gradient of the SCF energy
drvman.C: 244: calling SCF_Grad for normal SCF gradient
 Job number = 111, Threshold = 1.00E-11
Integral type ranges set in mkLRange.C for JobNum: 11  <1-6|7-7>
Finding J and K together
 ML is being used
 Job number = 122, Threshold = 1.00E-11
Integral type ranges set in mkLRange.C for JobNum: 22  <1-6|1-6>
Total number of integrals generated =           70507
 MakeJK  time:  CPU       0.30 s  wall       0.30 s
 Gradient of SCF Energy
            1           2           3           4           5           6
    1   0.0227023  -0.0660817  -0.0005820   0.0018568   0.0664366  -0.0230641
    2   0.0230594  -0.0107002   0.0037660  -0.0047856   0.0107631  -0.0231218
    3  -0.0000000  -0.0000000  -0.0000000   0.0000000  -0.0000000   0.0000000
            7           8           9          10
    1   0.0006043  -0.0018514   0.0028467  -0.0028675
    2  -0.0037624   0.0047736  -0.0039075   0.0039154
    3   0.0000000   0.0000000  -0.0000000   0.0000000
 Max gradient component =       6.644E-02
 RMS gradient           =       1.937E-02
drvman.C: 248: out of SCF_Grad for normal SCF gradient
 Gradient time:  CPU 0.31 s  wall 0.31 s
 ------------------------------------------------------------------------------
                     drvman        : Timing summary (seconds)
 ------------------------------------------------------------------------------
     job step          cpu (% of tot)      sys (% of tot)     wall (% of tot)
 ------------------------------------------------------------------------------
 ------------------------------------------------------------------------------
   Grand Totals     0.3120E+00          0.1000E-05          0.3112E+00
 ------------------------------------------------------------------------------
drvman_main.C: 77: out of DrvMan =======================================================
            AB INITIO MOLECULAR DYNAMICS
=======================================================
Created directory /home/jcartus/scratch/qchem7685/AIMD
AIMD will take 400 BOMD steps Velocity Verlet integration
Time step = 20.00000 a.u. ( = 0.48378 fs)
Total simulation time requested = 193.511 fs
Integral threshold = 10**(-11)
SCF convergence threshold = 10**(-8)
Generating viewable xyz trajectory,
 file (in Angstroms) at AIMD/View.xyz
Choosing nuclear velocities from Maxwell-Boltzmann
Velocities sampled from Maxwell-Boltzmann at T = 400.0 K
sqrt(kT/m) and (vx,vy,vz) for each atom:
  1   2.4064e-04  -8.91e-05   6.86e-05   3.44e-04 
  2   2.4064e-04   1.24e-04  -1.34e-04   1.20e-04 
  3   8.3036e-04  -7.83e-04   3.61e-04  -8.62e-04 
  4   8.3036e-04  -4.67e-04  -2.43e-04  -1.03e-03 
  5   2.4064e-04   2.00e-04   1.57e-04   6.43e-06 
  6   2.4064e-04   2.39e-04   6.71e-05  -4.18e-04 
  7   8.3036e-04   6.90e-04   5.10e-04   6.88e-04 
  8   8.3036e-04   3.69e-04   8.53e-05  -6.89e-04 
  9   8.3036e-04   2.18e-04   8.14e-04   3.90e-04 
 10   8.3036e-04  -1.11e-03   1.58e-04   3.32e-05 
T(nuclear) = 0.01147165 a.u.
v(c.o.m.) = (  8.4959e-05,   6.6670e-05,  -1.5857e-05)
T(c.o.m.) = 5.86907e-04 a.u.
kT/2 = 0.000633 a.u.
Tx   = 0.003818 a.u.
Ty   = 0.001617 a.u.
Tz   = 0.006037 a.u.
Mean velocities (a.u.):  -6.1053e-05   1.8431e-04  -1.4194e-04
Removing c.o.m. velocity
T(nuclear) = 0.01254447 a.u.
v(c.o.m.) = ( -1.3523e-20,  -8.4516e-21,   1.9720e-21)
T(c.o.m.) = 1.27181e-35 a.u.
kT   = 0.001267 a.u. = 0.79 kcal/mol
Tx   = 0.005537 a.u. = 3.47 kcal/mol
Ty   = 0.001151 a.u. = 0.72 kcal/mol
Tz   = 0.005857 a.u. = 3.68 kcal/mol
Initial velocities in m/s
  1     -2.7867e+02      8.4388e+01      7.6830e+02 
  2      1.8728e+02     -3.5879e+02      2.7753e+02 
  3     -2.7105e+03      6.5413e+00     -1.7006e+03 
  4     -2.0177e+03     -1.3142e+03     -2.0724e+03 
  5      3.5454e+02      2.7806e+02      2.9685e+01 
  6      4.3833e+02      8.1021e+01     -8.9888e+02 
  7      5.1171e+02      3.3342e+02      1.6917e+03 
  8     -1.9011e+02     -5.9565e+02     -1.3202e+03 
  9     -5.2021e+02      9.9797e+02      1.0397e+03 
 10     -3.4255e+03     -4.3641e+02      2.5870e+02 
----------------------------------------------------------------------------
       Nuclear coordinates (Angst) and velocities (a.u.)
----------------------------------------------------------------------------
             x        y        z            v_x         v_y        v_z
----------------------------------------------------------------------------
1      C    4.3309   1.9823   0.0000    -1.2738e-04   3.8574e-05   3.5119e-04
2      C    3.2142   1.2457   0.0000     8.5608e-05  -1.6400e-04   1.2686e-04
3      H    4.3084   3.0674   0.0000    -1.2390e-03   2.9900e-06  -7.7735e-04
4      H    5.3054   1.5042   0.0000    -9.2232e-04  -6.0070e-04  -9.4731e-04
5      C    1.8937   1.8242   0.0000     1.6206e-04   1.2710e-04   1.3569e-05
6      C    0.7764   1.0881   0.0000     2.0036e-04   3.7035e-05  -4.1088e-04
7      H    0.7986   0.0030   0.0000     2.3391e-04   1.5241e-04   7.7326e-04
8      H   -0.1979   1.5667   0.0000    -8.6902e-05  -2.7227e-04  -6.0348e-04
9      H    3.2958   0.1607   0.0000    -2.3779e-04   4.5618e-04   4.7524e-04
10     H    1.8123   2.9092   0.0000    -1.5658e-03  -1.9949e-04   1.1825e-04
----------------------------------------------------------------------------
Write nuclear velocities every 1 time steps

TIME STEP #1 (t = 0.000 a.u. = 0.00000 fs)
--------------------------------------
 Instantaneous Temperature = 264.1 K
 ----------------------------------------------------------------
             Standard Nuclear Orientation (Angstroms)
    I     Atom           X                Y                Z
 ----------------------------------------------------------------
    1      C       4.3294519976     1.9825966801     0.0037168782
    2      C       3.2154757520     1.2439860203     0.0013426130
    3      H       4.2952807872     3.0671746917    -0.0082271519
    4      H       5.2955716686     1.4980981178    -0.0100259461
    5      C       1.8950637419     1.8254931393     0.0001436085
    6      C       0.7786521352     1.0885938283    -0.0043485512
    7      H       0.8010207418     0.0048497475     0.0081838765
    8      H      -0.1986730702     1.5635233781    -0.0063869571
    9      H       3.2930993477     0.1657330682     0.0050297262
   10      H       1.7959033922     2.9068831745     0.0012515400
 ----------------------------------------------------------------
 Nuclear Repulsion Energy =   104.2522389426 hartrees
 There are       15 alpha and       15 beta electrons

                       Distance Matrix (Angstroms)
             C (  1)   C (  2)   H (  3)   H (  4)   C (  5)   C (  6)
   C (  2)  1.336598
   H (  3)  1.085182  2.118983
   H (  4)  1.080886  2.095591  1.860803
   C (  5)  2.439455  1.442789  2.702385  3.416247
   C (  6)  3.661623  2.441780  4.035031  4.535448  1.337690
   H (  7)  4.044914  2.713871  4.646284  4.736149  2.124085  1.084047
   H (  8)  4.547487  3.429078  4.738839  5.494635  2.110072  1.086613
   H (  9)  2.091655  1.081050  3.069675  2.405269  2.170099  2.678471
   H ( 10)  2.696883  2.186415  2.504530  3.772596  1.085927  2.083508
             H (  7)   H (  8)   H (  9)
   H (  8)  1.851773
   H (  9)  2.497268  3.761173
   H ( 10)  3.067839  2.404789  3.123382

 Applying Cartesian multipole field
    Component          Value
    ---------          -----
     (2,0,0)        1.00000E-12
     (0,2,0)        2.00000E-11
     (0,0,2)       -3.00000E-10
 Nucleus-field energy     =     0.0000000068 hartrees
 ENuRep (before)= 104.2522389426
 ENucField = 0.0000000068
 ENuRep (after) = 104.2522389495
 Job number = 2, Threshold = 1.00E-11
Integral type ranges set in mkLRange.C for JobNum: 2  <1-6|1-6>
Symmetry turned off temporarily
Symmetry turned back on
 Job number = 11, Threshold = 1.00E-11
Integral type ranges set in mkLRange.C for JobNum: 11  <1-6|7-7>
 Smallest overlap matrix eigenvalue = 1.83E-01
 Multipole matrices computed through 2nd order
 Guess from superposition of atomic densities
 Warning:  Energy on first SCF cycle will be non-variational
 SAD guess density has 30.000000 electrons
 SCF convergence criterion is 10**(-8)
 A restricted Hartree-Fock SCF calculation will be
 performed using Pulay DIIS extrapolation
 SCF converges when DIIS error is below 1.0E-08
Finding J and K together
 Job number = 22, Threshold = 1.00E-11
Integral type ranges set in mkLRange.C for JobNum: 22  <1-6|1-6>
 MakeJK  time:  CPU       0.08 s  wall       0.08 s
Fock build time:  0.08 s (CPU) 0.08 s (wall)
DIIS Errors:  Max 1.09E+00 RMS 2.16E-01

Current DIIS subspace size = 1
REM_GRID_RESTART_DIIS = 0

 ---------------------------------------
  Cycle       Energy         DIIS Error
 ---------------------------------------
    1    -152.6599372365      2.16E-01  00000
Finding J and K together
 Job number = 22, Threshold = 1.00E-11
Integral type ranges set in mkLRange.C for JobNum: 22  <1-6|1-6>
 MakeJK  time:  CPU       0.09 s  wall       0.09 s
Fock build time:  0.09 s (CPU) 0.09 s (wall)
DIIS Errors:  Max 5.96E-02 RMS 1.29E-02

Current DIIS subspace size = 2
REM_GRID_RESTART_DIIS = 0

    2    -152.9903837639      1.29E-02  00000
Finding J and K together
 Job number = 22, Threshold = 1.00E-11
Integral type ranges set in mkLRange.C for JobNum: 22  <1-6|1-6>
 MakeJK  time:  CPU       0.09 s  wall       0.09 s
Fock build time:  0.09 s (CPU) 0.09 s (wall)
DIIS Errors:  Max 1.85E-02 RMS 3.49E-03

Current DIIS subspace size = 3
REM_GRID_RESTART_DIIS = 0

    3    -153.0144367658      3.49E-03  00000
Finding J and K together
 Job number = 22, Threshold = 1.00E-11
Integral type ranges set in mkLRange.C for JobNum: 22  <1-6|1-6>
 MakeJK  time:  CPU       0.09 s  wall       0.09 s
Fock build time:  0.09 s (CPU) 0.09 s (wall)
DIIS Errors:  Max 9.03E-03 RMS 1.28E-03

Current DIIS subspace size = 4
REM_GRID_RESTART_DIIS = 0

    4    -153.0162172789      1.28E-03  00000
Finding J and K together
 Job number = 22, Threshold = 1.00E-11
Integral type ranges set in mkLRange.C for JobNum: 22  <1-6|1-6>
 MakeJK  time:  CPU       0.09 s  wall       0.09 s
Fock build time:  0.09 s (CPU) 0.09 s (wall)
DIIS Errors:  Max 1.12E-03 RMS 9.57E-05

Current DIIS subspace size = 5
REM_GRID_RESTART_DIIS = 0

    5    -153.0163869212      9.57E-05  00000
Finding J and K together
 Job number = 22, Threshold = 1.00E-11
Integral type ranges set in mkLRange.C for JobNum: 22  <1-6|1-6>
 MakeJK  time:  CPU       0.09 s  wall       0.09 s
Fock build time:  0.09 s (CPU) 0.09 s (wall)
DIIS Errors:  Max 1.48E-04 RMS 1.24E-05

Current DIIS subspace size = 6
REM_GRID_RESTART_DIIS = 0

    6    -153.0163900878      1.24E-05  00000
Finding J and K together
 Job number = 22, Threshold = 1.00E-11
Integral type ranges set in mkLRange.C for JobNum: 22  <1-6|1-6>
 MakeJK  time:  CPU       0.09 s  wall       0.09 s
Fock build time:  0.09 s (CPU) 0.09 s (wall)
DIIS Errors:  Max 1.01E-05 RMS 1.44E-06

Current DIIS subspace size = 7
REM_GRID_RESTART_DIIS = 0

    7    -153.0163901428      1.44E-06  00000
Finding J and K together
 Job number = 22, Threshold = 1.00E-11
Integral type ranges set in mkLRange.C for JobNum: 22  <1-6|1-6>
 MakeJK  time:  CPU       0.09 s  wall       0.09 s
Fock build time:  0.09 s (CPU) 0.09 s (wall)
DIIS Errors:  Max 6.36E-07 RMS 1.48E-07

Current DIIS subspace size = 8
REM_GRID_RESTART_DIIS = 0

    8    -153.0163901433      1.48E-07  00000
Finding J and K together
 Job number = 22, Threshold = 1.00E-11
Integral type ranges set in mkLRange.C for JobNum: 22  <1-6|1-6>
 MakeJK  time:  CPU       0.10 s  wall       0.09 s
Fock build time:  0.10 s (CPU) 0.09 s (wall)
DIIS Errors:  Max 3.45E-07 RMS 4.89E-08

Current DIIS subspace size = 9
REM_GRID_RESTART_DIIS = 0

    9    -153.0163901433      4.89E-08  00000
Finding J and K together
 Job number = 22, Threshold = 1.00E-11
Integral type ranges set in mkLRange.C for JobNum: 22  <1-6|1-6>
 MakeJK  time:  CPU       0.09 s  wall       0.09 s
Fock build time:  0.09 s (CPU) 0.09 s (wall)
DIIS Errors:  Max 1.29E-07 RMS 2.54E-08

Current DIIS subspace size = 10
REM_GRID_RESTART_DIIS = 0

   10    -153.0163901433      2.54E-08  00000
Finding J and K together
 Job number = 22, Threshold = 1.00E-11
Integral type ranges set in mkLRange.C for JobNum: 22  <1-6|1-6>
 MakeJK  time:  CPU       0.09 s  wall       0.09 s
Fock build time:  0.09 s (CPU) 0.09 s (wall)
DIIS Errors:  Max 4.31E-08 RMS 5.46E-09

Current DIIS subspace size = 11
REM_GRID_RESTART_DIIS = 0

   11    -153.0163901433      5.46E-09  00000 Convergence criterion met
 ---------------------------------------
 SCF time:  CPU 1.02 s  wall 1.02 s
 SCF   energy in the final basis set = -153.01639014
 Total energy in the final basis set = -153.01639014
drvman_main.C: 73: calling DrvMan  Calculating analytic gradient of the SCF energy
drvman.C : 218: Calculating analytic gradient of the SCF energy
drvman.C: 244: calling SCF_Grad for normal SCF gradient
 Job number = 111, Threshold = 1.00E-11
Integral type ranges set in mkLRange.C for JobNum: 11  <1-6|7-7>
 Warning:  Cost of integrals step H3 set to -1303769823
 Warning:  Retrieved cost of -1303769823 for integrals step H3
 Warning:  Retrieved cost of -1303769823 for integrals step H3
 Warning:  Retrieved cost of -1303769823 for integrals step H3
Finding J and K together
 ML is being used
 Job number = 122, Threshold = 1.00E-11
Integral type ranges set in mkLRange.C for JobNum: 22  <1-6|1-6>
 MakeJK  time:  CPU       0.31 s  wall       0.31 s
 Gradient of SCF Energy
            1           2           3           4           5           6
    1   0.0266542  -0.0623211  -0.0024820  -0.0029168   0.0685798  -0.0215839
    2   0.0227412  -0.0186867   0.0039023  -0.0049717   0.0135420  -0.0228156
    3   0.0026812  -0.0013603  -0.0007612  -0.0010250   0.0003176  -0.0014913
            7           8           9          10
    1   0.0004683  -0.0030664   0.0022060  -0.0055381
    2  -0.0024950   0.0047236   0.0023048   0.0017551
    3   0.0008934   0.0000878   0.0002268   0.0004310
 Max gradient component =       6.858E-02
 RMS gradient           =       1.957E-02
drvman.C: 248: out of SCF_Grad for normal SCF gradient
 Gradient time:  CPU 0.32 s  wall 0.32 s
 ------------------------------------------------------------------------------
                     drvman        : Timing summary (seconds)
 ------------------------------------------------------------------------------
     job step          cpu (% of tot)      sys (% of tot)     wall (% of tot)
 ------------------------------------------------------------------------------
 ------------------------------------------------------------------------------
   Grand Totals     0.3240E+00          0.3000E-05          0.3229E+00
 ------------------------------------------------------------------------------
drvman_main.C: 77: out of DrvMan  Time for this dynamics step: 1.4 s (CPU) 1.4 s (wall)

TIME STEP #2 (t = 20.000 a.u. = 0.48378 fs)
--------------------------------------
 Instantaneous Temperature = 261.2 K
 ----------------------------------------------------------------
             Standard Nuclear Orientation (Angstroms)
    I     Atom           X                Y                Z
 ----------------------------------------------------------------
    1      C       4.3277360751     1.9826733042     0.0074078114
    2      C       3.2173045563     1.2424828633     0.0026983888
    3      H       4.2824875406     3.0665397697    -0.0163665972
    4      H       5.2860393959     1.4925890564    -0.0199337968
    5      C       1.8957938694     1.8266552388     0.0002841438
    6      C       0.7810931277     1.0893184327    -0.0086826722
    7      H       0.8034075330     0.0069669574     0.0162648154
    8      H      -0.1991328463     1.5598225262    -0.0127840262
    9      H       3.2901645281     0.1705205873     0.0100333234
   10      H       1.7801348611     2.9043441288     0.0024534252
 ----------------------------------------------------------------
 Nuclear Repulsion Energy =   104.3567654386 hartrees
 There are       15 alpha and       15 beta electrons

                       Distance Matrix (Angstroms)
             C (  1)   C (  2)   H (  3)   H (  4)   C (  5)   C (  6)
   C (  2)  1.334527
   H (  3)  1.085071  2.112383
   H (  4)  1.076697  2.083922  1.866668
   C (  5)  2.436952  1.444872  2.689591  3.406725
   C (  6)  3.657461  2.441048  4.021098  4.522974  1.336527
   H (  7)  4.040345  2.711749  4.633147  4.722539  2.122458  1.082869
   H (  8)  4.546620  3.431179  4.728121  5.485589  2.111892  1.087306
   H (  9)  2.088171  1.074461  3.061426  2.394218  2.164982  2.672074
   H ( 10)  2.709202  2.197098  2.507674  3.779540  1.083880  2.071841
             H (  7)   H (  8)   H (  9)
   H (  8)  1.848592
   H (  9)  2.492137  3.755779
   H ( 10)  3.057610  2.392796  3.123146

 Applying Cartesian multipole field
    Component          Value
    ---------          -----
     (2,0,0)        1.00000E-12
     (0,2,0)        2.00000E-11
     (0,0,2)       -3.00000E-10
 Nucleus-field energy     =     0.0000000068 hartrees
 ENuRep (before)= 104.3567654386
 ENucField = 0.0000000068
 ENuRep (after) = 104.3567654454
 Job number = 2, Threshold = 1.00E-11
Integral type ranges set in mkLRange.C for JobNum: 2  <1-6|1-6>
Symmetry turned off temporarily
Symmetry turned back on
 Job number = 11, Threshold = 1.00E-11
Integral type ranges set in mkLRange.C for JobNum: 11  <1-6|7-7>
 Smallest overlap matrix eigenvalue = 1.82E-01
 Multipole matrices computed through 2nd order
 Guess from superposition of atomic densities
 Warning:  Energy on first SCF cycle will be non-variational
 SAD guess density has 30.000000 electrons
 SCF convergence criterion is 10**(-8)
 A restricted Hartree-Fock SCF calculation will be
 performed using Pulay DIIS extrapolation
 SCF converges when DIIS error is below 1.0E-08
Finding J and K together
 Job number = 22, Threshold = 1.00E-11
Integral type ranges set in mkLRange.C for JobNum: 22  <1-6|1-6>
 MakeJK  time:  CPU       0.08 s  wall       0.07 s
Fock build time:  0.08 s (CPU) 0.07 s (wall)
DIIS Errors:  Max 1.10E+00 RMS 2.16E-01

Current DIIS subspace size = 1
REM_GRID_RESTART_DIIS = 0

 ---------------------------------------
  Cycle       Energy         DIIS Error
 ---------------------------------------
    1    -152.6749578371      2.16E-01  00000
Finding J and K together
 Job number = 22, Threshold = 1.00E-11
Integral type ranges set in mkLRange.C for JobNum: 22  <1-6|1-6>
 MakeJK  time:  CPU       0.09 s  wall       0.09 s
Fock build time:  0.09 s (CPU) 0.09 s (wall)
DIIS Errors:  Max 5.97E-02 RMS 1.29E-02

Current DIIS subspace size = 2
REM_GRID_RESTART_DIIS = 0

    2    -152.9901660896      1.29E-02  00000
Finding J and K together
 Job number = 22, Threshold = 1.00E-11
Integral type ranges set in mkLRange.C for JobNum: 22  <1-6|1-6>
 MakeJK  time:  CPU       0.09 s  wall       0.09 s
Fock build time:  0.09 s (CPU) 0.09 s (wall)
DIIS Errors:  Max 1.84E-02 RMS 3.49E-03

Current DIIS subspace size = 3
REM_GRID_RESTART_DIIS = 0

    3    -153.0141439875      3.49E-03  00000
Finding J and K together
 Job number = 22, Threshold = 1.00E-11
Integral type ranges set in mkLRange.C for JobNum: 22  <1-6|1-6>
 MakeJK  time:  CPU       0.09 s  wall       0.09 s
Fock build time:  0.09 s (CPU) 0.09 s (wall)
DIIS Errors:  Max 9.09E-03 RMS 1.27E-03

Current DIIS subspace size = 4
REM_GRID_RESTART_DIIS = 0

    4    -153.0159137694      1.27E-03  00000
Finding J and K together
 Job number = 22, Threshold = 1.00E-11
Integral type ranges set in mkLRange.C for JobNum: 22  <1-6|1-6>
 MakeJK  time:  CPU       0.09 s  wall       0.09 s
Fock build time:  0.09 s (CPU) 0.09 s (wall)
DIIS Errors:  Max 1.10E-03 RMS 9.49E-05

Current DIIS subspace size = 5
REM_GRID_RESTART_DIIS = 0

    5    -153.0160816016      9.49E-05  00000
Finding J and K together
 Job number = 22, Threshold = 1.00E-11
Integral type ranges set in mkLRange.C for JobNum: 22  <1-6|1-6>
 MakeJK  time:  CPU       0.10 s  wall       0.09 s
Fock build time:  0.10 s (CPU) 0.09 s (wall)
DIIS Errors:  Max 1.42E-04 RMS 1.20E-05

Current DIIS subspace size = 6
REM_GRID_RESTART_DIIS = 0

    6    -153.0160846973      1.20E-05  00000
Finding J and K together
 Job number = 22, Threshold = 1.00E-11
Integral type ranges set in mkLRange.C for JobNum: 22  <1-6|1-6>
 MakeJK  time:  CPU       0.10 s  wall       0.09 s
Fock build time:  0.10 s (CPU) 0.09 s (wall)
DIIS Errors:  Max 9.86E-06 RMS 1.49E-06

Current DIIS subspace size = 7
REM_GRID_RESTART_DIIS = 0

    7    -153.0160847486      1.49E-06  00000
Finding J and K together
 Job number = 22, Threshold = 1.00E-11
Integral type ranges set in mkLRange.C for JobNum: 22  <1-6|1-6>
 MakeJK  time:  CPU       0.09 s  wall       0.09 s
Fock build time:  0.09 s (CPU) 0.09 s (wall)
DIIS Errors:  Max 9.15E-07 RMS 2.36E-07

Current DIIS subspace size = 8
REM_GRID_RESTART_DIIS = 0

    8    -153.0160847491      2.36E-07  00000
Finding J and K together
 Job number = 22, Threshold = 1.00E-11
Integral type ranges set in mkLRange.C for JobNum: 22  <1-6|1-6>
 MakeJK  time:  CPU       0.10 s  wall       0.10 s
Fock build time:  0.10 s (CPU) 0.10 s (wall)
DIIS Errors:  Max 5.11E-07 RMS 9.28E-08

Current DIIS subspace size = 9
REM_GRID_RESTART_DIIS = 0

    9    -153.0160847491      9.28E-08  00000
Finding J and K together
 Job number = 22, Threshold = 1.00E-11
Integral type ranges set in mkLRange.C for JobNum: 22  <1-6|1-6>
 MakeJK  time:  CPU       0.09 s  wall       0.09 s
Fock build time:  0.09 s (CPU) 0.09 s (wall)
DIIS Errors:  Max 1.35E-07 RMS 3.24E-08

Current DIIS subspace size = 10
REM_GRID_RESTART_DIIS = 0

   10    -153.0160847491      3.24E-08  00000
Finding J and K together
 Job number = 22, Threshold = 1.00E-11
Integral type ranges set in mkLRange.C for JobNum: 22  <1-6|1-6>
 MakeJK  time:  CPU       0.10 s  wall       0.09 s
Fock build time:  0.10 s (CPU) 0.09 s (wall)
DIIS Errors:  Max 4.17E-08 RMS 6.85E-09

Current DIIS subspace size = 11
REM_GRID_RESTART_DIIS = 0

   11    -153.0160847491      6.85E-09  00000 Convergence criterion met
 ---------------------------------------
 SCF time:  CPU 1.02 s  wall 1.03 s
 SCF   energy in the final basis set = -153.01608475
 Total energy in the final basis set = -153.01608475
drvman_main.C: 73: calling DrvMan  Calculating analytic gradient of the SCF energy
drvman.C : 218: Calculating analytic gradient of the SCF energy
drvman.C: 244: calling SCF_Grad for normal SCF gradient
 Job number = 111, Threshold = 1.00E-11
Integral type ranges set in mkLRange.C for JobNum: 11  <1-6|7-7>
Finding J and K together
 ML is being used
 Job number = 122, Threshold = 1.00E-11
Integral type ranges set in mkLRange.C for JobNum: 22  <1-6|1-6>
 MakeJK  time:  CPU       0.31 s  wall       0.31 s
 Gradient of SCF Energy
            1           2           3           4           5           6
    1   0.0291288  -0.0565838  -0.0042439  -0.0074041   0.0686586  -0.0193901
    2   0.0217006  -0.0258919   0.0039637  -0.0050815   0.0157645  -0.0215555
    3   0.0052498  -0.0027017  -0.0014989  -0.0019441   0.0006418  -0.0029573
            7           8           9          10
    1   0.0002663  -0.0039427   0.0014794  -0.0079686
    2  -0.0012622   0.0044269   0.0083653  -0.0004299
    3   0.0017677   0.0001737   0.0004202   0.0008488
 Max gradient component =       6.866E-02
 RMS gradient           =       1.944E-02
drvman.C: 248: out of SCF_Grad for normal SCF gradient
 Gradient time:  CPU 0.32 s  wall 0.32 s
 ------------------------------------------------------------------------------
                     drvman        : Timing summary (seconds)
 ------------------------------------------------------------------------------
     job step          cpu (% of tot)      sys (% of tot)     wall (% of tot)
 ------------------------------------------------------------------------------
 ------------------------------------------------------------------------------
   Grand Totals     0.3200E+00          0.1000E-05          0.3174E+00
 ------------------------------------------------------------------------------
drvman_main.C: 77: out of DrvMan  Time for this dynamics step: 1.4 s (CPU) 1.4 s (wall)

TIME STEP #3 (t = 40.000 a.u. = 0.96755 fs)
--------------------------------------
 Instantaneous Temperature = 254.8 K
 ----------------------------------------------------------------
             Standard Nuclear Orientation (Angstroms)
    I     Atom           X                Y                Z
 ----------------------------------------------------------------
    1      C       4.3257382868     1.9825399415     0.0110479446
    2      C       3.2196808955     1.2412302498     0.0040803075
    3      H       4.2701832583     3.0654481668    -0.0243333452
    4      H       5.2773601906     1.4876654716    -0.0296176573
    5      C       1.8958596195     1.8276647926     0.0004184690
    6      C       0.7837217491     1.0902516200    -0.0129881763
    7      H       0.8057636384     0.0092295946     0.0241420829
    8      H      -0.1991383589     1.5556116191    -0.0192011046
    9      H       3.2870592565     0.1743442923     0.0149885081
   10      H       1.7652844473     2.9018546129     0.0035575116
 ----------------------------------------------------------------
 Nuclear Repulsion Energy =   104.4655666207 hartrees
 There are       15 alpha and       15 beta electrons

                       Distance Matrix (Angstroms)
             C (  1)   C (  2)   H (  3)   H (  4)   C (  5)   C (  6)
   C (  2)  1.331522
   H (  3)  1.084909  2.105263
   H (  4)  1.073377  2.072658  1.871852
   C (  5)  2.434833  1.447903  2.677710  3.398683
   C (  6)  3.652757  2.440693  4.007112  4.511208  1.334469
   H (  7)  4.035387  2.710207  4.620068  4.709972  2.120278  1.081884
   H (  8)  4.545073  3.433322  4.717464  5.476930  2.112679  1.087480
   H (  9)  2.085292  1.069067  3.053942  2.384974  2.160814  2.665777
   H ( 10)  2.720500  2.207474  2.510390  3.786252  1.082101  2.060496
             H (  7)   H (  8)   H (  9)
   H (  8)  1.844723
   H (  9)  2.486800  3.750019
   H ( 10)  3.047685  2.381564  3.123338

 Applying Cartesian multipole field
    Component          Value
    ---------          -----
     (2,0,0)        1.00000E-12
     (0,2,0)        2.00000E-11
     (0,0,2)       -3.00000E-10
 Nucleus-field energy     =     0.0000000068 hartrees
 ENuRep (before)= 104.4655666207
 ENucField = 0.0000000068
 ENuRep (after) = 104.4655666275
 Job number = 2, Threshold = 1.00E-11
Integral type ranges set in mkLRange.C for JobNum: 2  <1-6|1-6>
Symmetry turned off temporarily
Symmetry turned back on
 Job number = 11, Threshold = 1.00E-11
Integral type ranges set in mkLRange.C for JobNum: 11  <1-6|7-7>
 Smallest overlap matrix eigenvalue = 1.81E-01
 Multipole matrices computed through 2nd order
 Guess from superposition of atomic densities
 Warning:  Energy on first SCF cycle will be non-variational
 SAD guess density has 30.000000 electrons
 SCF convergence criterion is 10**(-8)
 A restricted Hartree-Fock SCF calculation will be
 performed using Pulay DIIS extrapolation
 SCF converges when DIIS error is below 1.0E-08
Finding J and K together
 Job number = 22, Threshold = 1.00E-11
Integral type ranges set in mkLRange.C for JobNum: 22  <1-6|1-6>
 MakeJK  time:  CPU       0.08 s  wall       0.08 s
Fock build time:  0.08 s (CPU) 0.08 s (wall)
DIIS Errors:  Max 1.11E+00 RMS 2.17E-01

Current DIIS subspace size = 1
REM_GRID_RESTART_DIIS = 0

 ---------------------------------------
  Cycle       Energy         DIIS Error
 ---------------------------------------
    1    -152.6906931025      2.17E-01  00000
Finding J and K together
 Job number = 22, Threshold = 1.00E-11
Integral type ranges set in mkLRange.C for JobNum: 22  <1-6|1-6>
 MakeJK  time:  CPU       0.10 s  wall       0.10 s
Fock build time:  0.10 s (CPU) 0.10 s (wall)
DIIS Errors:  Max 5.97E-02 RMS 1.29E-02

Current DIIS subspace size = 2
REM_GRID_RESTART_DIIS = 0

    2    -152.9898363843      1.29E-02  00000
Finding J and K together
 Job number = 22, Threshold = 1.00E-11
Integral type ranges set in mkLRange.C for JobNum: 22  <1-6|1-6>
 MakeJK  time:  CPU       0.10 s  wall       0.10 s
Fock build time:  0.10 s (CPU) 0.10 s (wall)
DIIS Errors:  Max 1.84E-02 RMS 3.48E-03

Current DIIS subspace size = 3
REM_GRID_RESTART_DIIS = 0

    3    -153.0137466926      3.48E-03  00000
Finding J and K together
 Job number = 22, Threshold = 1.00E-11
Integral type ranges set in mkLRange.C for JobNum: 22  <1-6|1-6>
 MakeJK  time:  CPU       0.10 s  wall       0.10 s
Fock build time:  0.10 s (CPU) 0.10 s (wall)
DIIS Errors:  Max 9.14E-03 RMS 1.26E-03

Current DIIS subspace size = 4
REM_GRID_RESTART_DIIS = 0

    4    -153.0155049197      1.26E-03  00000
Finding J and K together
 Job number = 22, Threshold = 1.00E-11
Integral type ranges set in mkLRange.C for JobNum: 22  <1-6|1-6>
 MakeJK  time:  CPU       0.10 s  wall       0.10 s
Fock build time:  0.10 s (CPU) 0.10 s (wall)
DIIS Errors:  Max 1.08E-03 RMS 9.37E-05

Current DIIS subspace size = 5
REM_GRID_RESTART_DIIS = 0

    5    -153.0156708223      9.37E-05  00000
Finding J and K together
 Job number = 22, Threshold = 1.00E-11
Integral type ranges set in mkLRange.C for JobNum: 22  <1-6|1-6>
 MakeJK  time:  CPU       0.09 s  wall       0.09 s
Fock build time:  0.09 s (CPU) 0.09 s (wall)
DIIS Errors:  Max 1.37E-04 RMS 1.18E-05

Current DIIS subspace size = 6
REM_GRID_RESTART_DIIS = 0

    6    -153.0156738068      1.18E-05  00000
Finding J and K together
 Job number = 22, Threshold = 1.00E-11
Integral type ranges set in mkLRange.C for JobNum: 22  <1-6|1-6>
 MakeJK  time:  CPU       0.09 s  wall       0.09 s
Fock build time:  0.09 s (CPU) 0.09 s (wall)
DIIS Errors:  Max 1.01E-05 RMS 1.62E-06

Current DIIS subspace size = 7
REM_GRID_RESTART_DIIS = 0

    7    -153.0156738555      1.62E-06  00000
Finding J and K together
 Job number = 22, Threshold = 1.00E-11
Integral type ranges set in mkLRange.C for JobNum: 22  <1-6|1-6>
 MakeJK  time:  CPU       0.09 s  wall       0.09 s
Fock build time:  0.09 s (CPU) 0.09 s (wall)
DIIS Errors:  Max 1.37E-06 RMS 3.31E-07

Current DIIS subspace size = 8
REM_GRID_RESTART_DIIS = 0

    8    -153.0156738561      3.31E-07  00000
Finding J and K together
 Job number = 22, Threshold = 1.00E-11
Integral type ranges set in mkLRange.C for JobNum: 22  <1-6|1-6>
 MakeJK  time:  CPU       0.10 s  wall       0.10 s
Fock build time:  0.10 s (CPU) 0.10 s (wall)
DIIS Errors:  Max 7.43E-07 RMS 1.36E-07

Current DIIS subspace size = 9
REM_GRID_RESTART_DIIS = 0

    9    -153.0156738561      1.36E-07  00000
Finding J and K together
 Job number = 22, Threshold = 1.00E-11
Integral type ranges set in mkLRange.C for JobNum: 22  <1-6|1-6>
 MakeJK  time:  CPU       0.09 s  wall       0.09 s
Fock build time:  0.09 s (CPU) 0.09 s (wall)
DIIS Errors:  Max 1.33E-07 RMS 3.02E-08

Current DIIS subspace size = 10
REM_GRID_RESTART_DIIS = 0

   10    -153.0156738561      3.02E-08  00000
Finding J and K together
 Job number = 22, Threshold = 1.00E-11
Integral type ranges set in mkLRange.C for JobNum: 22  <1-6|1-6>
 MakeJK  time:  CPU       0.09 s  wall       0.09 s
Fock build time:  0.09 s (CPU) 0.09 s (wall)
DIIS Errors:  Max 2.56E-08 RMS 5.47E-09

Current DIIS subspace size = 11
REM_GRID_RESTART_DIIS = 0

   11    -153.0156738561      5.47E-09  00000 Convergence criterion met
 ---------------------------------------
 SCF time:  CPU 1.04 s  wall 1.04 s
 SCF   energy in the final basis set = -153.01567386
 Total energy in the final basis set = -153.01567386
drvman_main.C: 73: calling DrvMan  Calculating analytic gradient of the SCF energy
drvman.C : 218: Calculating analytic gradient of the SCF energy
drvman.C: 244: calling SCF_Grad for normal SCF gradient
 Job number = 111, Threshold = 1.00E-11
Integral type ranges set in mkLRange.C for JobNum: 11  <1-6|7-7>
Finding J and K together
 ML is being used
 Job number = 122, Threshold = 1.00E-11
Integral type ranges set in mkLRange.C for JobNum: 22  <1-6|1-6>
 MakeJK  time:  CPU       0.31 s  wall       0.31 s
 Gradient of SCF Energy
            1           2           3           4           5           6
    1   0.0296400  -0.0490153  -0.0058340  -0.0111709   0.0667305  -0.0165472
    2   0.0201152  -0.0314008   0.0039015  -0.0052994   0.0172037  -0.0192323
    3   0.0077114  -0.0040147  -0.0022104  -0.0027795   0.0009627  -0.0043864
            7           8           9          10
    1   0.0000061  -0.0044072   0.0007355  -0.0101374
    2  -0.0001836   0.0038705   0.0134734  -0.0024482
    3   0.0026216   0.0002603   0.0005858   0.0012492
 Max gradient component =       6.673E-02
 RMS gradient           =       1.889E-02
drvman.C: 248: out of SCF_Grad for normal SCF gradient
 Gradient time:  CPU 0.32 s  wall 0.32 s
 ------------------------------------------------------------------------------
                     drvman        : Timing summary (seconds)
 ------------------------------------------------------------------------------
     job step          cpu (% of tot)      sys (% of tot)     wall (% of tot)
 ------------------------------------------------------------------------------
 ------------------------------------------------------------------------------
   Grand Totals     0.3240E+00          0.0000E+00          0.3180E+00
 ------------------------------------------------------------------------------
drvman_main.C: 77: out of DrvMan  Time for this dynamics step: 1.4 s (CPU) 1.4 s (wall)

TIME STEP #4 (t = 60.000 a.u. = 1.45133 fs)
--------------------------------------
 Instantaneous Temperature = 246.3 K
 ----------------------------------------------------------------
             Standard Nuclear Orientation (Angstroms)
    I     Atom           X                Y                Z
 ----------------------------------------------------------------
    1      C       4.3234536862     1.9822119333     0.0146134581
    2      C       3.2225315332     1.2402814874     0.0055010750
    3      H       4.2585511502     3.0639070454    -0.0320454147
    4      H       5.2699680532     1.4833524649    -0.0389812778
    5      C       1.8952796502     1.8285078738     0.0005434781
    6      C       0.7865104899     1.0913709090    -0.0172512349
    7      H       0.8081190441     0.0115133837     0.0317172963
    8      H      -0.1986360882     1.5509547707    -0.0256481760
    9      H       3.2838692396     0.1766156471     0.0198762016
   10      H       1.7516020250     2.8996471669     0.0045176693
 ----------------------------------------------------------------
 Nuclear Repulsion Energy =   104.5739701641 hartrees
 There are       15 alpha and       15 beta electrons

                       Distance Matrix (Angstroms)
             C (  1)   C (  2)   H (  3)   H (  4)   C (  5)   C (  6)
   C (  2)  1.327619
   H (  3)  1.084645  2.097703
   H (  4)  1.071271  2.062294  1.876477
   C (  5)  2.433075  1.451769  2.666894  3.392524
   C (  6)  3.647544  2.440674  3.993267  4.500613  1.331562
   H (  7)  4.030077  2.709233  4.607239  4.698873  2.117631  1.081183
   H (  8)  4.542785  3.435386  4.706972  5.469038  2.112393  1.087107
   H (  9)  2.083493  1.065530  3.047811  2.378153  2.158078  2.659879
   H ( 10)  2.730606  2.217460  2.512591  3.792978  1.080740  2.049814
             H (  7)   H (  8)   H (  9)
   H (  8)  1.840306
   H (  9)  2.481277  3.744159
   H ( 10)  3.038456  2.371352  3.124577

 Applying Cartesian multipole field
    Component          Value
    ---------          -----
     (2,0,0)        1.00000E-12
     (0,2,0)        2.00000E-11
     (0,0,2)       -3.00000E-10
 Nucleus-field energy     =     0.0000000068 hartrees
 ENuRep (before)= 104.5739701641
 ENucField = 0.0000000068
 ENuRep (after) = 104.5739701709
 Job number = 2, Threshold = 1.00E-11
Integral type ranges set in mkLRange.C for JobNum: 2  <1-6|1-6>
Symmetry turned off temporarily
Symmetry turned back on
 Job number = 11, Threshold = 1.00E-11
Integral type ranges set in mkLRange.C for JobNum: 11  <1-6|7-7>
 Smallest overlap matrix eigenvalue = 1.79E-01
 Multipole matrices computed through 2nd order
 Guess from superposition of atomic densities
 Warning:  Energy on first SCF cycle will be non-variational
 SAD guess density has 30.000000 electrons
 SCF convergence criterion is 10**(-8)
 A restricted Hartree-Fock SCF calculation will be
 performed using Pulay DIIS extrapolation
 SCF converges when DIIS error is below 1.0E-08
Finding J and K together
 Job number = 22, Threshold = 1.00E-11
Integral type ranges set in mkLRange.C for JobNum: 22  <1-6|1-6>
 MakeJK  time:  CPU       0.08 s  wall       0.08 s
Fock build time:  0.08 s (CPU) 0.08 s (wall)
DIIS Errors:  Max 1.11E+00 RMS 2.18E-01

Current DIIS subspace size = 1
REM_GRID_RESTART_DIIS = 0

 ---------------------------------------
  Cycle       Energy         DIIS Error
 ---------------------------------------
    1    -152.7062033766      2.18E-01  00000
Finding J and K together
 Job number = 22, Threshold = 1.00E-11
Integral type ranges set in mkLRange.C for JobNum: 22  <1-6|1-6>
 MakeJK  time:  CPU       0.10 s  wall       0.10 s
Fock build time:  0.10 s (CPU) 0.10 s (wall)
DIIS Errors:  Max 5.98E-02 RMS 1.29E-02

Current DIIS subspace size = 2
REM_GRID_RESTART_DIIS = 0

    2    -152.9894689274      1.29E-02  00000
Finding J and K together
 Job number = 22, Threshold = 1.00E-11
Integral type ranges set in mkLRange.C for JobNum: 22  <1-6|1-6>
 MakeJK  time:  CPU       0.10 s  wall       0.10 s
Fock build time:  0.10 s (CPU) 0.10 s (wall)
DIIS Errors:  Max 1.84E-02 RMS 3.48E-03

Current DIIS subspace size = 3
REM_GRID_RESTART_DIIS = 0

    3    -153.0133229042      3.48E-03  00000
Finding J and K together
 Job number = 22, Threshold = 1.00E-11
Integral type ranges set in mkLRange.C for JobNum: 22  <1-6|1-6>
 MakeJK  time:  CPU       0.10 s  wall       0.09 s
Fock build time:  0.10 s (CPU) 0.09 s (wall)
DIIS Errors:  Max 9.17E-03 RMS 1.26E-03

Current DIIS subspace size = 4
REM_GRID_RESTART_DIIS = 0

    4    -153.0150694411      1.26E-03  00000
Finding J and K together
 Job number = 22, Threshold = 1.00E-11
Integral type ranges set in mkLRange.C for JobNum: 22  <1-6|1-6>
 MakeJK  time:  CPU       0.09 s  wall       0.09 s
Fock build time:  0.09 s (CPU) 0.09 s (wall)
DIIS Errors:  Max 1.05E-03 RMS 9.21E-05

Current DIIS subspace size = 5
REM_GRID_RESTART_DIIS = 0

    5    -153.0152335205      9.21E-05  00000
Finding J and K together
 Job number = 22, Threshold = 1.00E-11
Integral type ranges set in mkLRange.C for JobNum: 22  <1-6|1-6>
 MakeJK  time:  CPU       0.09 s  wall       0.09 s
Fock build time:  0.09 s (CPU) 0.09 s (wall)
DIIS Errors:  Max 1.34E-04 RMS 1.18E-05

Current DIIS subspace size = 6
REM_GRID_RESTART_DIIS = 0

    6    -153.0152363593      1.18E-05  00000
Finding J and K together
 Job number = 22, Threshold = 1.00E-11
Integral type ranges set in mkLRange.C for JobNum: 22  <1-6|1-6>
 MakeJK  time:  CPU       0.10 s  wall       0.09 s
Fock build time:  0.10 s (CPU) 0.09 s (wall)
DIIS Errors:  Max 1.08E-05 RMS 1.82E-06

Current DIIS subspace size = 7
REM_GRID_RESTART_DIIS = 0

    7    -153.0152364065      1.82E-06  00000
Finding J and K together
 Job number = 22, Threshold = 1.00E-11
Integral type ranges set in mkLRange.C for JobNum: 22  <1-6|1-6>
 MakeJK  time:  CPU       0.09 s  wall       0.09 s
Fock build time:  0.09 s (CPU) 0.09 s (wall)
DIIS Errors:  Max 2.07E-06 RMS 4.26E-07

Current DIIS subspace size = 8
REM_GRID_RESTART_DIIS = 0

    8    -153.0152364073      4.26E-07  00000
Finding J and K together
 Job number = 22, Threshold = 1.00E-11
Integral type ranges set in mkLRange.C for JobNum: 22  <1-6|1-6>
 MakeJK  time:  CPU       0.09 s  wall       0.09 s
Fock build time:  0.09 s (CPU) 0.09 s (wall)
DIIS Errors:  Max 9.24E-07 RMS 1.73E-07

Current DIIS subspace size = 9
REM_GRID_RESTART_DIIS = 0

    9    -153.0152364073      1.73E-07  00000
Finding J and K together
 Job number = 22, Threshold = 1.00E-11
Integral type ranges set in mkLRange.C for JobNum: 22  <1-6|1-6>
 MakeJK  time:  CPU       0.10 s  wall       0.09 s
Fock build time:  0.10 s (CPU) 0.09 s (wall)
DIIS Errors:  Max 1.30E-07 RMS 2.45E-08

Current DIIS subspace size = 10
REM_GRID_RESTART_DIIS = 0

   10    -153.0152364073      2.45E-08  00000
Finding J and K together
 Job number = 22, Threshold = 1.00E-11
Integral type ranges set in mkLRange.C for JobNum: 22  <1-6|1-6>
 MakeJK  time:  CPU       0.10 s  wall       0.09 s
Fock build time:  0.10 s (CPU) 0.09 s (wall)
DIIS Errors:  Max 2.23E-08 RMS 5.27E-09

Current DIIS subspace size = 11
REM_GRID_RESTART_DIIS = 0

   11    -153.0152364073      5.27E-09  00000 Convergence criterion met
 ---------------------------------------
 SCF time:  CPU 1.03 s  wall 1.03 s
 SCF   energy in the final basis set = -153.01523641
 Total energy in the final basis set = -153.01523641
drvman_main.C: 73: calling DrvMan  Calculating analytic gradient of the SCF energy
drvman.C : 218: Calculating analytic gradient of the SCF energy
drvman.C: 244: calling SCF_Grad for normal SCF gradient
 Job number = 111, Threshold = 1.00E-11
Integral type ranges set in mkLRange.C for JobNum: 11  <1-6|7-7>
Finding J and K together
 ML is being used
 Job number = 122, Threshold = 1.00E-11
Integral type ranges set in mkLRange.C for JobNum: 22  <1-6|1-6>
 MakeJK  time:  CPU       0.30 s  wall       0.30 s
 Gradient of SCF Energy
            1           2           3           4           5           6
    1   0.0278173  -0.0398026  -0.0072237  -0.0138588   0.0629062  -0.0131024
    2   0.0181547  -0.0343700   0.0036706  -0.0057859   0.0176670  -0.0158036
    3   0.0100864  -0.0052962  -0.0028922  -0.0035717   0.0012693  -0.0057688
            7           8           9          10
    1  -0.0003026  -0.0044265   0.0000283  -0.0120351
    2   0.0006501   0.0030652   0.0168816  -0.0041295
    3   0.0034566   0.0003503   0.0007381   0.0016284
 Max gradient component =       6.291E-02
 RMS gradient           =       1.782E-02
drvman.C: 248: out of SCF_Grad for normal SCF gradient
 Gradient time:  CPU 0.32 s  wall 0.31 s
 ------------------------------------------------------------------------------
                     drvman        : Timing summary (seconds)
 ------------------------------------------------------------------------------
     job step          cpu (% of tot)      sys (% of tot)     wall (% of tot)
 ------------------------------------------------------------------------------
 ------------------------------------------------------------------------------
   Grand Totals     0.3160E+00          0.2000E-05          0.3136E+00
 ------------------------------------------------------------------------------
drvman_main.C: 77: out of DrvMan  Time for this dynamics step: 1.4 s (CPU) 1.4 s (wall)

TIME STEP #5 (t = 80.000 a.u. = 1.93511 fs)
--------------------------------------
 Instantaneous Temperature = 237.2 K
 ----------------------------------------------------------------
             Standard Nuclear Orientation (Angstroms)
    I     Atom           X                Y                Z
 ----------------------------------------------------------------
    1      C       4.3208999109     1.9817082510     0.0180813704
    2      C       3.2257673224     1.2396653078     0.0069730917
    3      H       4.2477513320     3.0619430094    -0.0394242602
    4      H       5.2641726798     1.4797060887    -0.0479333795
    5      C       1.8940909667     1.8291800001     0.0006562050
    6      C       0.7894260165     1.0926431220    -0.0214584713
    7      H       0.8105093133     0.0137222730     0.0388942587
    8      H      -0.1976238159     1.5459447646    -0.0321356037
    9      H       3.2806759629     0.1769419711     0.0246788596
   10      H       1.7393062461     2.8979155072     0.0052902079
 ----------------------------------------------------------------
 Nuclear Repulsion Energy =   104.6781262961 hartrees
 There are       15 alpha and       15 beta electrons

                       Distance Matrix (Angstroms)
             C (  1)   C (  2)   H (  3)   H (  4)   C (  5)   C (  6)
   C (  2)  1.322901
   H (  3)  1.084235  2.089809
   H (  4)  1.070574  2.053224  1.880601
   C (  5)  2.431660  1.456341  2.657260  3.388502
   C (  6)  3.641882  2.440939  3.979759  4.491534  1.327878
   H (  7)  4.024456  2.708768  4.594825  4.689538  2.114592  1.080813
   H (  8)  4.539765  3.437287  4.696772  5.462221  2.111059  1.086215
   H (  9)  2.083096  1.064288  3.043448  2.374179  2.157101  2.654612
   H ( 10)  2.739384  2.226963  2.514200  3.799847  1.079896  2.040097
             H (  7)   H (  8)   H (  9)
   H (  8)  1.835506
   H (  9)  2.475594  3.738444
   H ( 10)  3.030242  2.362398  3.127282

 Applying Cartesian multipole field
    Component          Value
    ---------          -----
     (2,0,0)        1.00000E-12
     (0,2,0)        2.00000E-11
     (0,0,2)       -3.00000E-10
 Nucleus-field energy     =     0.0000000068 hartrees
 ENuRep (before)= 104.6781262961
 ENucField = 0.0000000068
 ENuRep (after) = 104.6781263029
 Job number = 2, Threshold = 1.00E-11
Integral type ranges set in mkLRange.C for JobNum: 2  <1-6|1-6>
Symmetry turned off temporarily
Symmetry turned back on
 Job number = 11, Threshold = 1.00E-11
Integral type ranges set in mkLRange.C for JobNum: 11  <1-6|7-7>
 Smallest overlap matrix eigenvalue = 1.78E-01
 Multipole matrices computed through 2nd order
 Guess from superposition of atomic densities
 Warning:  Energy on first SCF cycle will be non-variational
 SAD guess density has 30.000000 electrons
 SCF convergence criterion is 10**(-8)
 A restricted Hartree-Fock SCF calculation will be
 performed using Pulay DIIS extrapolation
 SCF converges when DIIS error is below 1.0E-08
Finding J and K together
 Job number = 22, Threshold = 1.00E-11
Integral type ranges set in mkLRange.C for JobNum: 22  <1-6|1-6>
 MakeJK  time:  CPU       0.08 s  wall       0.08 s
Fock build time:  0.08 s (CPU) 0.08 s (wall)
DIIS Errors:  Max 1.12E+00 RMS 2.19E-01

Current DIIS subspace size = 1
REM_GRID_RESTART_DIIS = 0

 ---------------------------------------
  Cycle       Energy         DIIS Error
 ---------------------------------------
    1    -152.7207578930      2.19E-01  00000
Finding J and K together
 Job number = 22, Threshold = 1.00E-11
Integral type ranges set in mkLRange.C for JobNum: 22  <1-6|1-6>
 MakeJK  time:  CPU       0.09 s  wall       0.09 s
Fock build time:  0.09 s (CPU) 0.09 s (wall)
DIIS Errors:  Max 5.99E-02 RMS 1.29E-02

Current DIIS subspace size = 2
REM_GRID_RESTART_DIIS = 0

    2    -152.9891191106      1.29E-02  00000
Finding J and K together
 Job number = 22, Threshold = 1.00E-11
Integral type ranges set in mkLRange.C for JobNum: 22  <1-6|1-6>
 MakeJK  time:  CPU       0.10 s  wall       0.09 s
Fock build time:  0.10 s (CPU) 0.09 s (wall)
DIIS Errors:  Max 1.84E-02 RMS 3.48E-03

Current DIIS subspace size = 3
REM_GRID_RESTART_DIIS = 0

    3    -153.0129306515      3.48E-03  00000
Finding J and K together
 Job number = 22, Threshold = 1.00E-11
Integral type ranges set in mkLRange.C for JobNum: 22  <1-6|1-6>
 MakeJK  time:  CPU       0.09 s  wall       0.09 s
Fock build time:  0.10 s (CPU) 0.09 s (wall)
DIIS Errors:  Max 9.20E-03 RMS 1.25E-03

Current DIIS subspace size = 4
REM_GRID_RESTART_DIIS = 0

    4    -153.0146659687      1.25E-03  00000
Finding J and K together
 Job number = 22, Threshold = 1.00E-11
Integral type ranges set in mkLRange.C for JobNum: 22  <1-6|1-6>
 MakeJK  time:  CPU       0.09 s  wall       0.09 s
Fock build time:  0.09 s (CPU) 0.09 s (wall)
DIIS Errors:  Max 1.02E-03 RMS 9.01E-05

Current DIIS subspace size = 5
REM_GRID_RESTART_DIIS = 0

    5    -153.0148284505      9.01E-05  00000
Finding J and K together
 Job number = 22, Threshold = 1.00E-11
Integral type ranges set in mkLRange.C for JobNum: 22  <1-6|1-6>
 MakeJK  time:  CPU       0.09 s  wall       0.09 s
Fock build time:  0.09 s (CPU) 0.09 s (wall)
DIIS Errors:  Max 1.31E-04 RMS 1.18E-05

Current DIIS subspace size = 6
REM_GRID_RESTART_DIIS = 0

    6    -153.0148311177      1.18E-05  00000
Finding J and K together
 Job number = 22, Threshold = 1.00E-11
Integral type ranges set in mkLRange.C for JobNum: 22  <1-6|1-6>
 MakeJK  time:  CPU       0.10 s  wall       0.09 s
Fock build time:  0.10 s (CPU) 0.09 s (wall)
DIIS Errors:  Max 1.17E-05 RMS 2.05E-06

Current DIIS subspace size = 7
REM_GRID_RESTART_DIIS = 0

    7    -153.0148311644      2.05E-06  00000
Finding J and K together
 Job number = 22, Threshold = 1.00E-11
Integral type ranges set in mkLRange.C for JobNum: 22  <1-6|1-6>
 MakeJK  time:  CPU       0.09 s  wall       0.09 s
Fock build time:  0.09 s (CPU) 0.09 s (wall)
DIIS Errors:  Max 2.83E-06 RMS 5.17E-07

Current DIIS subspace size = 8
REM_GRID_RESTART_DIIS = 0

    8    -153.0148311654      5.17E-07  00000
Finding J and K together
 Job number = 22, Threshold = 1.00E-11
Integral type ranges set in mkLRange.C for JobNum: 22  <1-6|1-6>
 MakeJK  time:  CPU       0.09 s  wall       0.09 s
Fock build time:  0.09 s (CPU) 0.09 s (wall)
DIIS Errors:  Max 1.04E-06 RMS 2.04E-07

Current DIIS subspace size = 9
REM_GRID_RESTART_DIIS = 0

    9    -153.0148311654      2.04E-07  00000
Finding J and K together
 Job number = 22, Threshold = 1.00E-11
Integral type ranges set in mkLRange.C for JobNum: 22  <1-6|1-6>
 MakeJK  time:  CPU       0.10 s  wall       0.09 s
Fock build time:  0.10 s (CPU) 0.09 s (wall)
DIIS Errors:  Max 1.80E-07 RMS 2.46E-08

Current DIIS subspace size = 10
REM_GRID_RESTART_DIIS = 0

   10    -153.0148311654      2.46E-08  00000
Finding J and K together
 Job number = 22, Threshold = 1.00E-11
Integral type ranges set in mkLRange.C for JobNum: 22  <1-6|1-6>
 MakeJK  time:  CPU       0.10 s  wall       0.09 s
Fock build time:  0.10 s (CPU) 0.09 s (wall)
DIIS Errors:  Max 4.72E-08 RMS 1.14E-08

Current DIIS subspace size = 11
REM_GRID_RESTART_DIIS = 0

   11    -153.0148311654      1.14E-08  00000
Finding J and K together
 Job number = 22, Threshold = 1.00E-11
Integral type ranges set in mkLRange.C for JobNum: 22  <1-6|1-6>
 MakeJK  time:  CPU       0.09 s  wall       0.09 s
Fock build time:  0.09 s (CPU) 0.09 s (wall)
DIIS Errors:  Max 1.44E-08 RMS 3.35E-09

Current DIIS subspace size = 12
REM_GRID_RESTART_DIIS = 0

   12    -153.0148311654      3.35E-09  00000 Convergence criterion met
 ---------------------------------------
 SCF time:  CPU 1.12 s  wall 1.12 s
 SCF   energy in the final basis set = -153.01483117
 Total energy in the final basis set = -153.01483117
drvman_main.C: 73: calling DrvMan  Calculating analytic gradient of the SCF energy
drvman.C : 218: Calculating analytic gradient of the SCF energy
drvman.C: 244: calling SCF_Grad for normal SCF gradient
 Job number = 111, Threshold = 1.00E-11
Integral type ranges set in mkLRange.C for JobNum: 11  <1-6|7-7>
Finding J and K together
 ML is being used
 Job number = 122, Threshold = 1.00E-11
Integral type ranges set in mkLRange.C for JobNum: 22  <1-6|1-6>
 MakeJK  time:  CPU       0.30 s  wall       0.30 s
 Gradient of SCF Energy
            1           2           3           4           5           6
    1   0.0234771  -0.0291620  -0.0083904  -0.0152445   0.0573386  -0.0090869
    2   0.0159441  -0.0342022   0.0032391  -0.0066400   0.0170218  -0.0113072
    3   0.0124000  -0.0065461  -0.0035393  -0.0043688   0.0015494  -0.0070945
            7           8           9          10
    1  -0.0006477  -0.0040091  -0.0006148  -0.0136603
    2   0.0011881   0.0020458   0.0180536  -0.0053430
    3   0.0042741   0.0004455   0.0008965   0.0019831
 Max gradient component =       5.734E-02
 RMS gradient           =       1.616E-02
drvman.C: 248: out of SCF_Grad for normal SCF gradient
 Gradient time:  CPU 0.32 s  wall 0.32 s
 ------------------------------------------------------------------------------
                     drvman        : Timing summary (seconds)
 ------------------------------------------------------------------------------
     job step          cpu (% of tot)      sys (% of tot)     wall (% of tot)
 ------------------------------------------------------------------------------
 ------------------------------------------------------------------------------
   Grand Totals     0.3240E+00          0.1000E-05          0.3183E+00
 ------------------------------------------------------------------------------
drvman_main.C: 77: out of DrvMan  Time for this dynamics step: 1.5 s (CPU) 1.5 s (wall)

TIME STEP #6 (t = 100.000 a.u. = 2.41888 fs)
--------------------------------------
 Instantaneous Temperature = 228.6 K
 ----------------------------------------------------------------
             Standard Nuclear Orientation (Angstroms)
    I     Atom           X                Y                Z
 ----------------------------------------------------------------
    1      C       4.3181189588     1.9810502848     0.0214292936
    2      C       3.2292852990     1.2393800874     0.0085084518
    3      H       4.2379182238     3.0596057795    -0.0463953176
    4      H       5.2601337203     1.4768247508    -0.0563821227
    5      C       1.8923474443     1.8296874143     0.0007539388
    6      C       0.7924294728     1.0940247493    -0.0255970577
    7      H       0.8129742044     0.0157942713     0.0455787763
    8      H      -0.1961496319     1.5406990546    -0.0386743622
    9      H       3.2775535193     0.1751882308     0.0293782246
   10      H       1.7285843589     2.8967994518     0.0058342559
 ----------------------------------------------------------------
 Nuclear Repulsion Energy =   104.7754100622 hartrees
 There are       15 alpha and       15 beta electrons

                       Distance Matrix (Angstroms)
             C (  1)   C (  2)   H (  3)   H (  4)   C (  5)   C (  6)
   C (  2)  1.317498
   H (  3)  1.083658  2.081724
   H (  4)  1.071303  2.045712  1.884203
   C (  5)  2.430577  1.461481  2.648891  3.386704
   C (  6)  3.635865  2.441425  3.966779  4.484179  1.323523
   H (  7)  4.018564  2.708707  4.582956  4.682119  2.111223  1.080772
   H (  8)  4.536093  3.438986  4.687013  5.456686  2.108765  1.084886
   H (  9)  2.084221  1.065490  3.041037  2.373233  2.158004  2.650118
   H ( 10)  2.746731  2.235878  2.515152  3.806841  1.079617  2.031593
             H (  7)   H (  8)   H (  9)
   H (  8)  1.830509
   H (  9)  2.469781  3.733077
   H ( 10)  3.023262  2.354908  3.131617

 Applying Cartesian multipole field
    Component          Value
    ---------          -----
     (2,0,0)        1.00000E-12
     (0,2,0)        2.00000E-11
     (0,0,2)       -3.00000E-10
 Nucleus-field energy     =     0.0000000068 hartrees
 ENuRep (before)= 104.7754100622
 ENucField = 0.0000000068
 ENuRep (after) = 104.7754100690
 Job number = 2, Threshold = 1.00E-11
Integral type ranges set in mkLRange.C for JobNum: 2  <1-6|1-6>
Symmetry turned off temporarily
Symmetry turned back on
 Job number = 11, Threshold = 1.00E-11
Integral type ranges set in mkLRange.C for JobNum: 11  <1-6|7-7>
 Smallest overlap matrix eigenvalue = 1.76E-01
 Multipole matrices computed through 2nd order
 Guess from superposition of atomic densities
 Warning:  Energy on first SCF cycle will be non-variational
 SAD guess density has 30.000000 electrons
 SCF convergence criterion is 10**(-8)
 A restricted Hartree-Fock SCF calculation will be
 performed using Pulay DIIS extrapolation
 SCF converges when DIIS error is below 1.0E-08
Finding J and K together
 Job number = 22, Threshold = 1.00E-11
Integral type ranges set in mkLRange.C for JobNum: 22  <1-6|1-6>
 MakeJK  time:  CPU       0.08 s  wall       0.08 s
Fock build time:  0.08 s (CPU) 0.08 s (wall)
DIIS Errors:  Max 1.14E+00 RMS 2.20E-01

Current DIIS subspace size = 1
REM_GRID_RESTART_DIIS = 0

 ---------------------------------------
  Cycle       Energy         DIIS Error
 ---------------------------------------
    1    -152.7339167907      2.20E-01  00000
Finding J and K together
 Job number = 22, Threshold = 1.00E-11
Integral type ranges set in mkLRange.C for JobNum: 22  <1-6|1-6>
 MakeJK  time:  CPU       0.10 s  wall       0.09 s
Fock build time:  0.10 s (CPU) 0.09 s (wall)
DIIS Errors:  Max 6.00E-02 RMS 1.29E-02

Current DIIS subspace size = 2
REM_GRID_RESTART_DIIS = 0

    2    -152.9887909568      1.29E-02  00000
Finding J and K together
 Job number = 22, Threshold = 1.00E-11
Integral type ranges set in mkLRange.C for JobNum: 22  <1-6|1-6>
 MakeJK  time:  CPU       0.09 s  wall       0.09 s
Fock build time:  0.09 s (CPU) 0.09 s (wall)
DIIS Errors:  Max 1.84E-02 RMS 3.48E-03

Current DIIS subspace size = 3
REM_GRID_RESTART_DIIS = 0

    3    -153.0125754083      3.48E-03  00000
Finding J and K together
 Job number = 22, Threshold = 1.00E-11
Integral type ranges set in mkLRange.C for JobNum: 22  <1-6|1-6>
 MakeJK  time:  CPU       0.09 s  wall       0.09 s
Fock build time:  0.09 s (CPU) 0.09 s (wall)
DIIS Errors:  Max 9.21E-03 RMS 1.25E-03

Current DIIS subspace size = 4
REM_GRID_RESTART_DIIS = 0

    4    -153.0143004546      1.25E-03  00000
Finding J and K together
 Job number = 22, Threshold = 1.00E-11
Integral type ranges set in mkLRange.C for JobNum: 22  <1-6|1-6>
 MakeJK  time:  CPU       0.10 s  wall       0.09 s
Fock build time:  0.10 s (CPU) 0.09 s (wall)
DIIS Errors:  Max 9.78E-04 RMS 8.80E-05

Current DIIS subspace size = 5
REM_GRID_RESTART_DIIS = 0

    5    -153.0144615704      8.80E-05  00000
Finding J and K together
 Job number = 22, Threshold = 1.00E-11
Integral type ranges set in mkLRange.C for JobNum: 22  <1-6|1-6>
 MakeJK  time:  CPU       0.10 s  wall       0.09 s
Fock build time:  0.10 s (CPU) 0.09 s (wall)
DIIS Errors:  Max 1.30E-04 RMS 1.20E-05

Current DIIS subspace size = 6
REM_GRID_RESTART_DIIS = 0

    6    -153.0144640501      1.20E-05  00000
Finding J and K together
 Job number = 22, Threshold = 1.00E-11
Integral type ranges set in mkLRange.C for JobNum: 22  <1-6|1-6>
 MakeJK  time:  CPU       0.09 s  wall       0.09 s
Fock build time:  0.09 s (CPU) 0.09 s (wall)
DIIS Errors:  Max 1.27E-05 RMS 2.30E-06

Current DIIS subspace size = 7
REM_GRID_RESTART_DIIS = 0

    7    -153.0144640970      2.30E-06  00000
Finding J and K together
 Job number = 22, Threshold = 1.00E-11
Integral type ranges set in mkLRange.C for JobNum: 22  <1-6|1-6>
 MakeJK  time:  CPU       0.09 s  wall       0.09 s
Fock build time:  0.09 s (CPU) 0.09 s (wall)
DIIS Errors:  Max 3.55E-06 RMS 6.03E-07

Current DIIS subspace size = 8
REM_GRID_RESTART_DIIS = 0

    8    -153.0144640983      6.03E-07  00000
Finding J and K together
 Job number = 22, Threshold = 1.00E-11
Integral type ranges set in mkLRange.C for JobNum: 22  <1-6|1-6>
 MakeJK  time:  CPU       0.10 s  wall       0.09 s
Fock build time:  0.10 s (CPU) 0.09 s (wall)
DIIS Errors:  Max 1.10E-06 RMS 2.27E-07

Current DIIS subspace size = 9
REM_GRID_RESTART_DIIS = 0

    9    -153.0144640984      2.27E-07  00000
Finding J and K together
 Job number = 22, Threshold = 1.00E-11
Integral type ranges set in mkLRange.C for JobNum: 22  <1-6|1-6>
 MakeJK  time:  CPU       0.09 s  wall       0.09 s
Fock build time:  0.09 s (CPU) 0.09 s (wall)
DIIS Errors:  Max 2.41E-07 RMS 3.27E-08

Current DIIS subspace size = 10
REM_GRID_RESTART_DIIS = 0

   10    -153.0144640984      3.27E-08  00000
Finding J and K together
 Job number = 22, Threshold = 1.00E-11
Integral type ranges set in mkLRange.C for JobNum: 22  <1-6|1-6>
 MakeJK  time:  CPU       0.09 s  wall       0.09 s
Fock build time:  0.09 s (CPU) 0.09 s (wall)
DIIS Errors:  Max 6.16E-08 RMS 1.45E-08

Current DIIS subspace size = 11
REM_GRID_RESTART_DIIS = 0

   11    -153.0144640984      1.45E-08  00000
Finding J and K together
 Job number = 22, Threshold = 1.00E-11
Integral type ranges set in mkLRange.C for JobNum: 22  <1-6|1-6>
 MakeJK  time:  CPU       0.09 s  wall       0.09 s
Fock build time:  0.09 s (CPU) 0.09 s (wall)
DIIS Errors:  Max 1.64E-08 RMS 3.89E-09

Current DIIS subspace size = 12
REM_GRID_RESTART_DIIS = 0

   12    -153.0144640984      3.89E-09  00000 Convergence criterion met
 ---------------------------------------
 SCF time:  CPU 1.12 s  wall 1.12 s
 SCF   energy in the final basis set = -153.01446410
 Total energy in the final basis set = -153.01446410
drvman_main.C: 73: calling DrvMan  Calculating analytic gradient of the SCF energy
drvman.C : 218: Calculating analytic gradient of the SCF energy
drvman.C: 244: calling SCF_Grad for normal SCF gradient
 Job number = 111, Threshold = 1.00E-11
Integral type ranges set in mkLRange.C for JobNum: 11  <1-6|7-7>
Finding J and K together
 ML is being used
 Job number = 122, Threshold = 1.00E-11
Integral type ranges set in mkLRange.C for JobNum: 22  <1-6|1-6>
 MakeJK  time:  CPU       0.31 s  wall       0.30 s
 Gradient of SCF Energy
            1           2           3           4           5           6
    1   0.0166732  -0.0173391  -0.0093187  -0.0152774   0.0502130  -0.0045219
    2   0.0135411  -0.0306972   0.0025960  -0.0078719   0.0152175  -0.0058662
    3   0.0146702  -0.0077620  -0.0041468  -0.0052121   0.0017915  -0.0083504
            7           8           9          10
    1  -0.0010153  -0.0032050  -0.0011951  -0.0150136
    2   0.0014257   0.0008681   0.0167980  -0.0060112
    3   0.0050733   0.0005471   0.0010791   0.0023101
 Max gradient component =       5.021E-02
 RMS gradient           =       1.401E-02
drvman.C: 248: out of SCF_Grad for normal SCF gradient
 Gradient time:  CPU 0.32 s  wall 0.31 s
 ------------------------------------------------------------------------------
                     drvman        : Timing summary (seconds)
 ------------------------------------------------------------------------------
     job step          cpu (% of tot)      sys (% of tot)     wall (% of tot)
 ------------------------------------------------------------------------------
 ------------------------------------------------------------------------------
   Grand Totals     0.3200E+00          0.1000E-05          0.3136E+00
 ------------------------------------------------------------------------------
drvman_main.C: 77: out of DrvMan  Time for this dynamics step: 1.5 s (CPU) 1.5 s (wall)

TIME STEP #7 (t = 120.000 a.u. = 2.90266 fs)
--------------------------------------
 Instantaneous Temperature = 220.8 K
 ----------------------------------------------------------------
             Standard Nuclear Orientation (Angstroms)
    I     Atom           X                Y                Z
 ----------------------------------------------------------------
    1      C       4.3151766681     1.9802612874     0.0246352601
    2      C       3.2329710584     1.2393919092     0.0101189214
    3      H       4.2291587812     3.0569694447    -0.0528885963
    4      H       5.2578549699     1.4748503872    -0.0642303504
    5      C       1.8901180337     1.8300475754     0.0008343371
    6      C       0.7954766855     1.0954631406    -0.0296548410
    7      H       0.8155560720     0.0177020061     0.0516787675
    8      H      -0.1943061823     1.5353533297    -0.0452761548
    9      H       3.2745687737     0.1714990909     0.0339532627
   10      H       1.7195922878     2.8963759820     0.0061121373
 ----------------------------------------------------------------
 Nuclear Repulsion Energy =   104.8645393647 hartrees
 There are       15 alpha and       15 beta electrons

                       Distance Matrix (Angstroms)
             C (  1)   C (  2)   H (  3)   H (  4)   C (  5)   C (  6)
   C (  2)  1.311590
   H (  3)  1.082917  2.073632
   H (  4)  1.073303  2.039883  1.887179
   C (  5)  2.429823  1.467043  2.641843  3.387042
   C (  6)  3.629615  2.442064  3.954519  4.478610  1.318629
   H (  7)  4.012445  2.708902  4.571735  4.676616  2.107573  1.081012
   H (  8)  4.531916  3.440478  4.677864  5.452530  2.105658  1.083244
   H (  9)  2.086761  1.068968  3.040514  2.375245  2.160691  2.646442
   H ( 10)  2.752575  2.244087  2.515392  3.813789  1.079890  2.024489
             H (  7)   H (  8)   H (  9)
   H (  8)  1.825510
   H (  9)  2.463881  3.728199
   H ( 10)  3.017635  2.349049  3.137464

 Applying Cartesian multipole field
    Component          Value
    ---------          -----
     (2,0,0)        1.00000E-12
     (0,2,0)        2.00000E-11
     (0,0,2)       -3.00000E-10
 Nucleus-field energy     =     0.0000000068 hartrees
 ENuRep (before)= 104.8645393647
 ENucField = 0.0000000068
 ENuRep (after) = 104.8645393714
[...]
Fock build time:  0.10 s (CPU) 0.10 s (wall)
DIIS Errors:  Max 5.05E-08 RMS 7.85E-09

Current DIIS subspace size = 8
REM_GRID_RESTART_DIIS = 0

    8    -153.0104356016      7.85E-09  00000 Convergence criterion met
 ---------------------------------------
 SCF time:  CPU 0.69 s  wall 0.69 s
 SCF   energy in the final basis set = -153.01043560
 Total energy in the final basis set = -153.01043560
drvman_main.C: 73: calling DrvMan  Calculating analytic gradient of the SCF energy
drvman.C : 218: Calculating analytic gradient of the SCF energy
drvman.C: 244: calling SCF_Grad for normal SCF gradient
 Job number = 111, Threshold = 1.00E-11
Integral type ranges set in mkLRange.C for JobNum: 11  <1-6|7-7>
Finding J and K together
 ML is being used
 Job number = 122, Threshold = 1.00E-11
Integral type ranges set in mkLRange.C for JobNum: 22  <1-6|1-6>
 MakeJK  time:  CPU       0.31 s  wall       0.30 s
 Gradient of SCF Energy
            1           2           3           4           5           6
    1   0.0338535  -0.0592210  -0.0006621  -0.0046974   0.0295987  -0.0245272
    2   0.0175754  -0.0146404   0.0017669   0.0068853   0.0209431  -0.0252126
    3  -0.0069811  -0.0397286   0.0124964  -0.0012167  -0.0024635   0.0203981
            7           8           9          10
    1   0.0032468   0.0083718   0.0037234   0.0103135
    2  -0.0036501   0.0051435  -0.0168024   0.0079914
    3   0.0031939  -0.0089189   0.0167454   0.0064750
 Max gradient component =       5.922E-02
 RMS gradient           =       1.915E-02
drvman.C: 248: out of SCF_Grad for normal SCF gradient
 Gradient time:  CPU 0.33 s  wall 0.32 s
 ------------------------------------------------------------------------------
                     drvman        : Timing summary (seconds)
 ------------------------------------------------------------------------------
     job step          cpu (% of tot)      sys (% of tot)     wall (% of tot)
 ------------------------------------------------------------------------------
 ------------------------------------------------------------------------------
   Grand Totals     0.3280E+00          0.0000E+00          0.3211E+00
 ------------------------------------------------------------------------------
drvman_main.C: 77: out of DrvMan  Time for this dynamics step: 1.0 s (CPU) 1.0 s (wall)

TIME STEP #399 (t = 7960.000 a.u. = 192.54319 fs)
--------------------------------------
 Instantaneous Temperature = 136.4 K
 ----------------------------------------------------------------
             Standard Nuclear Orientation (Angstroms)
    I     Atom           X                Y                Z
 ----------------------------------------------------------------
    1      C       4.0632386189     2.1301915646     0.8232042660
    2      C       3.0670690534     1.3110490970     0.4503096167
    3      H       4.1111557748     3.1777939516     0.5578013682
    4      H       4.7615666917     1.8614486978     1.5928118973
    5      C       2.0717241577     1.7267629892    -0.5306050613
    6      C       1.0063342281     0.9644952650    -0.7653186473
    7      H       0.8894015450     0.0065964860    -0.2683768453
    8      H       0.3399384777     1.2491390170    -1.5743456132
    9      H       3.0248868978     0.3091889300     0.9326963943
   10      H       2.2776261268     2.6993823630    -0.9737585889
 ----------------------------------------------------------------
 Nuclear Repulsion Energy =   104.1770532730 hartrees
 There are       15 alpha and       15 beta electrons

                       Distance Matrix (Angstroms)
             C (  1)   C (  2)   H (  3)   H (  4)   C (  5)   C (  6)
   C (  2)  1.342534
   H (  3)  1.081760  2.141590
   H (  4)  1.073397  2.116500  1.796398
   C (  5)  2.441656  1.457986  2.729359  3.429620
   C (  6)  3.636883  2.417536  4.035995  4.524055  1.330864
   H (  7)  3.971706  2.638246  4.595516  4.679547  2.103717  1.085447
   H (  8)  4.515248  3.397102  4.742135  5.473263  2.077643  1.086108
   H (  9)  2.099098  1.112744  3.090214  2.421016  2.249286  2.717947
   H ( 10)  2.596433  2.139780  2.436470  3.668702  1.088471  2.160894
             H (  7)   H (  8)   H (  9)
   H (  8)  1.884509
   H (  9)  2.468691  3.791796
   H ( 10)  3.110599  2.493701  3.147379

 Applying Cartesian multipole field
    Component          Value
    ---------          -----
     (2,0,0)        1.00000E-12
     (0,2,0)        2.00000E-11
     (0,0,2)       -3.00000E-10
 Nucleus-field energy     =    -0.0000000121 hartrees
 ENuRep (before)= 104.1770532730
 ENucField = -0.0000000121
 ENuRep (after) = 104.1770532608
 Job number = 2, Threshold = 1.00E-11
Integral type ranges set in mkLRange.C for JobNum: 2  <1-6|1-6>
Symmetry turned off temporarily
Symmetry turned back on
 Job number = 11, Threshold = 1.00E-11
Integral type ranges set in mkLRange.C for JobNum: 11  <1-6|7-7>
 Smallest overlap matrix eigenvalue = 1.83E-01
 Multipole matrices computed through 2nd order
 Extrapolating the Fock matrix using 12 points and a 6th-order polynomial
 Alpha Fock matrix extrapolation
 Skip SCF guess (diagonalize extrapolated Fock matrix instead)
 SCF convergence criterion is 10**(-8)
 A restricted Hartree-Fock SCF calculation will be
 performed using Pulay DIIS extrapolation
 SCF converges when DIIS error is below 1.0E-08
Extrapolated Fock matrix used in lieu of Fock build
Fock build time:  0.00 s (CPU) 0.00 s (wall)
DIIS Errors:  Max 4.89E-03 RMS 8.31E-04

Current DIIS subspace size = 1
REM_GRID_RESTART_DIIS = 0

 ---------------------------------------
  Cycle       Energy         DIIS Error
 ---------------------------------------
    1    -308.5561894301      8.31E-04  00000
Finding J and K together
 Job number = 22, Threshold = 1.00E-11
Integral type ranges set in mkLRange.C for JobNum: 22  <1-6|1-6>
 MakeJK  time:  CPU       0.10 s  wall       0.09 s
Fock build time:  0.10 s (CPU) 0.09 s (wall)
DIIS Errors:  Max 1.73E-03 RMS 1.38E-04

Current DIIS subspace size = 2
REM_GRID_RESTART_DIIS = 0

    2    -153.0098796958      1.38E-04  00000
Finding J and K together
 Job number = 22, Threshold = 1.00E-11
Integral type ranges set in mkLRange.C for JobNum: 22  <1-6|1-6>
 MakeJK  time:  CPU       0.10 s  wall       0.09 s
Fock build time:  0.10 s (CPU) 0.09 s (wall)
DIIS Errors:  Max 1.61E-04 RMS 1.37E-05

Current DIIS subspace size = 3
REM_GRID_RESTART_DIIS = 0

    3    -153.0098800085      1.37E-05  00000
Finding J and K together
 Job number = 22, Threshold = 1.00E-11
Integral type ranges set in mkLRange.C for JobNum: 22  <1-6|1-6>
 MakeJK  time:  CPU       0.09 s  wall       0.09 s
Fock build time:  0.09 s (CPU) 0.09 s (wall)
DIIS Errors:  Max 5.87E-06 RMS 9.35E-07

Current DIIS subspace size = 4
REM_GRID_RESTART_DIIS = 0

    4    -153.0098800131      9.35E-07  00000
Finding J and K together
 Job number = 22, Threshold = 1.00E-11
Integral type ranges set in mkLRange.C for JobNum: 22  <1-6|1-6>
 MakeJK  time:  CPU       0.09 s  wall       0.09 s
Fock build time:  0.09 s (CPU) 0.09 s (wall)
DIIS Errors:  Max 2.61E-06 RMS 4.94E-07

Current DIIS subspace size = 5
REM_GRID_RESTART_DIIS = 0

    5    -153.0098800132      4.94E-07  00000
Finding J and K together
 Job number = 22, Threshold = 1.00E-11
Integral type ranges set in mkLRange.C for JobNum: 22  <1-6|1-6>
 MakeJK  time:  CPU       0.09 s  wall       0.09 s
Fock build time:  0.10 s (CPU) 0.09 s (wall)
DIIS Errors:  Max 5.68E-07 RMS 7.94E-08

Current DIIS subspace size = 6
REM_GRID_RESTART_DIIS = 0

    6    -153.0098800132      7.94E-08  00000
Finding J and K together
 Job number = 22, Threshold = 1.00E-11
Integral type ranges set in mkLRange.C for JobNum: 22  <1-6|1-6>
 MakeJK  time:  CPU       0.09 s  wall       0.09 s
Fock build time:  0.09 s (CPU) 0.09 s (wall)
DIIS Errors:  Max 1.83E-07 RMS 2.70E-08

Current DIIS subspace size = 7
REM_GRID_RESTART_DIIS = 0

    7    -153.0098800132      2.70E-08  00000
Finding J and K together
 Job number = 22, Threshold = 1.00E-11
Integral type ranges set in mkLRange.C for JobNum: 22  <1-6|1-6>
 MakeJK  time:  CPU       0.09 s  wall       0.09 s
Fock build time:  0.09 s (CPU) 0.09 s (wall)
DIIS Errors:  Max 4.27E-08 RMS 9.13E-09

Current DIIS subspace size = 8
REM_GRID_RESTART_DIIS = 0

    8    -153.0098800132      9.13E-09  00000 Convergence criterion met
 ---------------------------------------
 SCF time:  CPU 0.66 s  wall 0.67 s
 SCF   energy in the final basis set = -153.00988001
 Total energy in the final basis set = -153.00988001
drvman_main.C: 73: calling DrvMan  Calculating analytic gradient of the SCF energy
drvman.C : 218: Calculating analytic gradient of the SCF energy
drvman.C: 244: calling SCF_Grad for normal SCF gradient
 Job number = 111, Threshold = 1.00E-11
Integral type ranges set in mkLRange.C for JobNum: 11  <1-6|7-7>
Finding J and K together
 ML is being used
 Job number = 122, Threshold = 1.00E-11
Integral type ranges set in mkLRange.C for JobNum: 22  <1-6|1-6>
 MakeJK  time:  CPU       0.30 s  wall       0.30 s
 Gradient of SCF Energy
            1           2           3           4           5           6
    1   0.0367962  -0.0603774  -0.0007721  -0.0071890   0.0310107  -0.0257523
    2   0.0158543  -0.0130972   0.0030336   0.0074077   0.0219917  -0.0248995
    3  -0.0062110  -0.0406904   0.0125695  -0.0025836  -0.0021522   0.0205433
            7           8           9          10
    1   0.0044545   0.0084604   0.0043827   0.0089863
    2  -0.0043760   0.0063977  -0.0193067   0.0069944
    3   0.0039299  -0.0099145   0.0184664   0.0060427
 Max gradient component =       6.038E-02
 RMS gradient           =       1.976E-02
drvman.C: 248: out of SCF_Grad for normal SCF gradient
 Gradient time:  CPU 0.32 s  wall 0.31 s
 ------------------------------------------------------------------------------
                     drvman        : Timing summary (seconds)
 ------------------------------------------------------------------------------
     job step          cpu (% of tot)      sys (% of tot)     wall (% of tot)
 ------------------------------------------------------------------------------
 ------------------------------------------------------------------------------
   Grand Totals     0.3200E+00          0.3000E-05          0.3134E+00
 ------------------------------------------------------------------------------
drvman_main.C: 77: out of DrvMan  Time for this dynamics step: 1.0 s (CPU) 1.0 s (wall)

TIME STEP #400 (t = 7980.000 a.u. = 193.02697 fs)
--------------------------------------
 Instantaneous Temperature = 124.9 K
 ----------------------------------------------------------------
             Standard Nuclear Orientation (Angstroms)
    I     Atom           X                Y                Z
 ----------------------------------------------------------------
    1      C       4.0632460058     2.1300687725     0.8239068507
    2      C       3.0665734436     1.3118479732     0.4520614863
    3      H       4.1132310913     3.1794928196     0.5600061124
    4      H       4.7485924104     1.8610811627     1.6031234263
    5      C       2.0721965168     1.7257067967    -0.5313200436
    6      C       1.0068577051     0.9646379356    -0.7674633911
    7      H       0.8967558649     0.0039046184    -0.2729096160
    8      H       0.3441202062     1.2543960010    -1.5785795349
    9      H       3.0260737546     0.3111610394     0.9389666274
   10      H       2.2697581522     2.6963409205    -0.9789529251
 ----------------------------------------------------------------
 Nuclear Repulsion Energy =   104.1773379906 hartrees
 There are       15 alpha and       15 beta electrons

                       Distance Matrix (Angstroms)
             C (  1)   C (  2)   H (  3)   H (  4)   C (  5)   C (  6)
   C (  2)  1.342055
   H (  3)  1.083251  2.143651
   H (  4)  1.072023  2.110874  1.797216
   C (  5)  2.442218  1.458459  2.733187  3.425970
   C (  6)  3.637609  2.418724  4.039469  4.519278  1.330390
   H (  7)  3.968657  2.635224  4.596066  4.669609  2.100724  1.086147
   H (  8)  4.513385  3.396845  4.741913  5.467237  2.074882  1.086780
   H (  9)  2.096996  1.113594  3.090768  2.410483  2.252235  2.723264
   H ( 10)  2.605296  2.144653  2.449535  3.675513  1.086985  2.153704
             H (  7)   H (  8)   H (  9)
   H (  8)  1.890478
   H (  9)  2.469220  3.797447
   H ( 10)  3.103683  2.479282  3.152699

 Applying Cartesian multipole field
    Component          Value
    ---------          -----
     (2,0,0)        1.00000E-12
     (0,2,0)        2.00000E-11
     (0,0,2)       -3.00000E-10
 Nucleus-field energy     =    -0.0000000123 hartrees
 ENuRep (before)= 104.1773379906
 ENucField = -0.0000000123
 ENuRep (after) = 104.1773379784
 Job number = 2, Threshold = 1.00E-11
Integral type ranges set in mkLRange.C for JobNum: 2  <1-6|1-6>
Symmetry turned off temporarily
Symmetry turned back on
 Job number = 11, Threshold = 1.00E-11
Integral type ranges set in mkLRange.C for JobNum: 11  <1-6|7-7>
 Smallest overlap matrix eigenvalue = 1.83E-01
 Multipole matrices computed through 2nd order
 Extrapolating the Fock matrix using 12 points and a 6th-order polynomial
 Alpha Fock matrix extrapolation
 Skip SCF guess (diagonalize extrapolated Fock matrix instead)
 SCF convergence criterion is 10**(-8)
 A restricted Hartree-Fock SCF calculation will be
 performed using Pulay DIIS extrapolation
 SCF converges when DIIS error is below 1.0E-08
Extrapolated Fock matrix used in lieu of Fock build
Fock build time:  0.00 s (CPU) 0.00 s (wall)
DIIS Errors:  Max 4.23E-03 RMS 6.83E-04

Current DIIS subspace size = 1
REM_GRID_RESTART_DIIS = 0

 ---------------------------------------
  Cycle       Energy         DIIS Error
 ---------------------------------------
    1    -308.5801534841      6.83E-04  00000
Finding J and K together
 Job number = 22, Threshold = 1.00E-11
Integral type ranges set in mkLRange.C for JobNum: 22  <1-6|1-6>
 MakeJK  time:  CPU       0.09 s  wall       0.09 s
Fock build time:  0.09 s (CPU) 0.09 s (wall)
DIIS Errors:  Max 1.13E-03 RMS 9.11E-05

Current DIIS subspace size = 2
REM_GRID_RESTART_DIIS = 0

    2    -153.0097017019      9.11E-05  00000
Finding J and K together
 Job number = 22, Threshold = 1.00E-11
Integral type ranges set in mkLRange.C for JobNum: 22  <1-6|1-6>
 MakeJK  time:  CPU       0.09 s  wall       0.09 s
Fock build time:  0.09 s (CPU) 0.09 s (wall)
DIIS Errors:  Max 9.11E-05 RMS 8.09E-06

Current DIIS subspace size = 3
REM_GRID_RESTART_DIIS = 0

    3    -153.0097018448      8.09E-06  00000
Finding J and K together
 Job number = 22, Threshold = 1.00E-11
Integral type ranges set in mkLRange.C for JobNum: 22  <1-6|1-6>
 MakeJK  time:  CPU       0.09 s  wall       0.09 s
Fock build time:  0.09 s (CPU) 0.09 s (wall)
DIIS Errors:  Max 3.51E-06 RMS 6.00E-07

Current DIIS subspace size = 4
REM_GRID_RESTART_DIIS = 0

    4    -153.0097018470      6.00E-07  00000
Finding J and K together
 Job number = 22, Threshold = 1.00E-11
Integral type ranges set in mkLRange.C for JobNum: 22  <1-6|1-6>
 MakeJK  time:  CPU       0.09 s  wall       0.09 s
Fock build time:  0.09 s (CPU) 0.09 s (wall)
DIIS Errors:  Max 1.68E-06 RMS 2.78E-07

Current DIIS subspace size = 5
REM_GRID_RESTART_DIIS = 0

    5    -153.0097018470      2.78E-07  00000
Finding J and K together
 Job number = 22, Threshold = 1.00E-11
Integral type ranges set in mkLRange.C for JobNum: 22  <1-6|1-6>
 MakeJK  time:  CPU       0.09 s  wall       0.09 s
Fock build time:  0.09 s (CPU) 0.09 s (wall)
DIIS Errors:  Max 5.34E-07 RMS 6.97E-08

Current DIIS subspace size = 6
REM_GRID_RESTART_DIIS = 0

    6    -153.0097018470      6.97E-08  00000
Finding J and K together
 Job number = 22, Threshold = 1.00E-11
Integral type ranges set in mkLRange.C for JobNum: 22  <1-6|1-6>
 MakeJK  time:  CPU       0.09 s  wall       0.09 s
Fock build time:  0.09 s (CPU) 0.09 s (wall)
DIIS Errors:  Max 1.53E-07 RMS 2.41E-08

Current DIIS subspace size = 7
REM_GRID_RESTART_DIIS = 0

    7    -153.0097018470      2.41E-08  00000
Finding J and K together
 Job number = 22, Threshold = 1.00E-11
Integral type ranges set in mkLRange.C for JobNum: 22  <1-6|1-6>
 MakeJK  time:  CPU       0.10 s  wall       0.09 s
Fock build time:  0.10 s (CPU) 0.09 s (wall)
DIIS Errors:  Max 2.43E-08 RMS 4.77E-09

Current DIIS subspace size = 8
REM_GRID_RESTART_DIIS = 0

    8    -153.0097018470      4.77E-09  00000 Convergence criterion met
 ---------------------------------------
 SCF time:  CPU 0.66 s  wall 0.66 s
 SCF   energy in the final basis set = -153.00970185
 Total energy in the final basis set = -153.00970185
drvman_main.C: 73: calling DrvMan  Calculating analytic gradient of the SCF energy
drvman.C : 218: Calculating analytic gradient of the SCF energy
drvman.C: 244: calling SCF_Grad for normal SCF gradient
 Job number = 111, Threshold = 1.00E-11
Integral type ranges set in mkLRange.C for JobNum: 11  <1-6|7-7>
Finding J and K together
 ML is being used
 Job number = 122, Threshold = 1.00E-11
Integral type ranges set in mkLRange.C for JobNum: 22  <1-6|1-6>
 MakeJK  time:  CPU       0.31 s  wall       0.30 s
 Gradient of SCF Energy
            1           2           3           4           5           6
    1   0.0379317  -0.0599521  -0.0008969  -0.0088348   0.0314583  -0.0263507
    2   0.0137147  -0.0128687   0.0044627   0.0074738   0.0226830  -0.0238128
    3  -0.0064390  -0.0397161   0.0124386  -0.0031100  -0.0021758   0.0203801
            7           8           9          10
    1   0.0055713   0.0085949   0.0049658   0.0075125
    2  -0.0049229   0.0073538  -0.0197773   0.0056937
    3   0.0044846  -0.0105226   0.0190263   0.0056338
 Max gradient component =       5.995E-02
 RMS gradient           =       1.977E-02
drvman.C: 248: out of SCF_Grad for normal SCF gradient
 Gradient time:  CPU 0.32 s  wall 0.32 s
 ------------------------------------------------------------------------------
                     drvman        : Timing summary (seconds)
 ------------------------------------------------------------------------------
     job step          cpu (% of tot)      sys (% of tot)     wall (% of tot)
 ------------------------------------------------------------------------------
 ------------------------------------------------------------------------------
   Grand Totals     0.3200E+00          0.3000E-05          0.3154E+00
 ------------------------------------------------------------------------------
drvman_main.C: 77: out of DrvMan  Time for this dynamics step: 1.0 s (CPU) 1.0 s (wall)

=============== TIME STEPS COMPLETED ==================

Step-to-Step energy fluctuations, |E(n) - E(n-1)|
Mean: 9.047e-08   Max: 1.289e-05   RMS: 5.154e-06
Overall energy fluctuations, |E(n) - E(0)|
Mean: 1.115e-05   Max: 3.822e-05   RMS: 1.145e-05   RMS(dE)/RMS(dV): 5.921e-03
Kinetic energy fluctuations, |T(n) - V(0)|
Mean: -3.528e-03   Max: 7.518e-03   RMS: 1.924e-03
Potential energy fluctuations, |V(n) - V(0)|
Mean: 3.540e-03   Max: 7.556e-03   RMS: 1.933e-03


 JobOver = TRUE
Archival summary:
1\1\qciep03\JobtypUnspecified\HF\STO-3G\46\jcartus\ThuMay3100:23:482018ThuMay3100:23:482018\0\\#,JobtypUnspecified,HF,STO-3G,\\0,1\C\H,1,1.08699\C,1,1.33039,2,125.681\H,3,1.08615,1,120.422,2,179.834,0\H,3,1.08678,1,117.923,2,9.56331,0\C,1,1.45846,2,114.025,3,-176.862,0\H,6,1.11359,1,121.669,2,-175.867,0\C,6,1.34205,1,121.342,2,5.03901,0\H,8,1.07202,6,121.547,1,174.955,0\H,8,1.08325,6,123.877,1,10.3084,0\\HF=-153.009702\\@

 Total job time:  403.87s(wall), 404.77s(cpu) 
 Thu May 31 00:23:48 2018

        *************************************************************
        *                                                           *
        *  Thank you very much for using Q-Chem.  Have a nice day.  *
        *                                                           *
        *************************************************************


*** MISSION COMPLETED -- STARFLEET OUT ***

0 sent ACK to 0 
now end server 0 ... 
