Process 0 of 1 is on qciep03 - thread support 0
initial socket setup ...start
initial socket setup ...done 
now start server 0 ... 
qciep03.tugraz.at 127.0.1
Q-Chem Developer Version! Running on 127.0.1.*
                  Welcome to Q-Chem
     A Quantum Leap Into The Future Of Chemistry


 Q-Chem 5.0, Q-Chem, Inc., Pleasanton, CA (2017)

 Yihan Shao,  Zhengting Gan,  E. Epifanovsky,  A. T. B. Gilbert,  M. Wormit,  
 J. Kussmann,  A. W. Lange,  A. Behn,  Jia Deng,  Xintian Feng,  D. Ghosh,  
 M. Goldey,  P. R. Horn,  L. D. Jacobson,  I. Kaliman,  T. Kus,  A. Landau,  
 Jie Liu,  E. I. Proynov,  R. M. Richard,  R. P. Steele,  E. J. Sundstrom,  
 H. L. Woodcock III,  P. M. Zimmerman,  D. Zuev,  B. Albrecht,  E. Alguire,  
 S. A. Baeppler,  D. Barton,  Z. Benda,  Y. A. Bernard,  E. J. Berquist,  
 K. B. Bravaya,  H. Burton,  D. Casanova,  Chun-Min Chang,  Yunqing Chen,  
 A. Chien,  K. D. Closser,  M. P. Coons,  S. Dasgupta,  A. L. Dempwolff,  
 M. Diedenhofen,  Hainam Do,  R. G. Edgar,  Po-Tung Fang,  S. Fatehi,  
 Qingguo Feng,  J. Fosso-Tande,  Qinghui Ge,  A. Ghysels,  G. Gidofalvi,  
 J. Gomes,  J. Gonthier,  A. Gunina,  M. W. D. Hanson-Heine,  
 P. H. P. Harbach,  A. W. Hauser,  J. E. Herr,  E. G. Hohenstein,  
 Z. C. Holden,  Kerwin Hui,  T.-C. Jagau,  Hyunjun Ji,  B. Kaduk,  
 K. Khistyaev,  Jaehoon Kim,  P. Klunzinger,  K. Koh,  D. Kosenkov,  
 L. Koulias,  T. Kowalczyk,  C. M. Krauter,  A. Kunitsa,  Ka Un Lao,  
 A. Laurent,  K. V. Lawler,  Joonho Lee,  D. Lefrancois,  S. Lehtola,  
 D. S. Levine,  Yi-Pei Li,  You-Sheng Lin,  Fenglai Liu,  E. Livshits,  
 A. Luenser,  P. Manohar,  E. Mansoor,  S. F. Manzer,  Shan-Ping Mao,  
 Yuezhi Mao,  N. Mardirossian,  A. V. Marenich,  T. Markovich,  
 L. A. Martinez-Martinez,  S. A. Maurer,  N. J. Mayhall,  S. C. McKenzie,  
 J.-M. Mewes,  A. F. Morrison,  J. W. Mullinax,  K. Nanda,  
 T. S. Nguyen-Beck,  R. Olivares-Amaya,  J. A. Parkhill,  T. M. Perrine,  
 F. Plasser,  S. Prager,  A. Prociuk,  E. Ramos,  D. R. Rehn,  F. Rob,  
 M. Schneider,  N. Sergueev,  S. M. Sharada,  S. Sharma,  D. W. Small,  
 T. Stauch,  T. Stein,  Yu-Chuan Su,  A. J. W. Thom,  A. Tkatchenko,  
 T. Tsuchimochi,  L. Vogt,  O. Vydrov,  M. A. Watson,  J. Wenzel,  
 M. de Wergifosse,  T. A. Wesolowski,  A. White,  J. Witte,  A. Yamada,  
 Jun Yang,  K. Yao,  S. Yeganeh,  S. R. Yost,  Zhi-Qiang You,  A. Zech,  
 Igor Ying Zhang,  Xing Zhang,  Yan Zhao,  Ying Zhu,  B. R. Brooks,  
 G. K. L. Chan,  C. J. Cramer,  M. S. Gordon,  W. J. Hehre,  A. Klamt,  
 M. W. Schmidt,  C. D. Sherrill,  D. G. Truhlar,  A. Aspuru-Guzik,  R. Baer,  
 A. T. Bell,  N. A. Besley,  Jeng-Da Chai,  R. A. DiStasio Jr.,  A. Dreuw,  
 B. D. Dunietz,  T. R. Furlani,  Chao-Ping Hsu,  Yousung Jung,  Jing Kong,  
 D. S. Lambrecht,  WanZhen Liang,  C. Ochsenfeld,  V. A. Rassolov,  
 L. V. Slipchenko,  J. E. Subotnik,  T. Van Voorhis,  J. M. Herbert,  
 A. I. Krylov,  P. M. W. Gill,  M. Head-Gordon

 Contributors to earlier versions of Q-Chem not listed above: 
 R. D. Adamson,  B. Austin,  J. Baker,  G. J. O. Beran,  K. Brandhorst,  
 S. T. Brown,  E. F. C. Byrd,  A. K. Chakraborty,  C.-L. Cheng,  
 Siu Hung Chien,  D. M. Chipman,  D. L. Crittenden,  H. Dachsel,  
 R. J. Doerksen,  A. D. Dutoi,  L. Fusti-Molnar,  W. A. Goddard III,  
 A. Golubeva-Zadorozhnaya,  S. R. Gwaltney,  G. Hawkins,  A. Heyden,  
 S. Hirata,  G. Kedziora,  F. J. Keil,  C. Kelley,  Jihan Kim,  R. A. King,  
 R. Z. Khaliullin,  P. P. Korambath,  W. Kurlancheek,  A. M. Lee,  M. S. Lee,  
 S. V. Levchenko,  Ching Yeh Lin,  D. Liotard,  R. C. Lochan,  I. Lotan,  
 P. E. Maslen,  N. Nair,  D. P. O'Neill,  D. Neuhauser,  E. Neuscamman,  
 C. M. Oana,  R. Olson,  B. Peters,  R. Peverati,  P. A. Pieniazek,  
 Y. M. Rhee,  J. Ritchie,  M. A. Rohrdanz,  E. Rosta,  N. J. Russ,  
 H. F. Schaefer III,  N. E. Schultz,  N. Shenvi,  A. C. Simmonett,  A. Sodt,  
 D. Stuck,  K. S. Thanthiriwatte,  V. Vanovschi,  Tao Wang,  A. Warshel,  
 C. F. Williams,  Q. Wu,  X. Xu,  W. Zhang

 Please cite Q-Chem as follows:
 Y. Shao et al., Mol. Phys. 113, 184-215 (2015)
 DOI: 10.1080/00268976.2014.952696

 Q-Chem 5.0.2 for Intel X86 EM64T Linux

 Parts of Q-Chem use Armadillo 5.200.1 (Boston Tea Smuggler).
 http://arma.sourceforge.net/

 Q-Chem begins on Mon Jun 18 11:53:30 2018  


Host: 0

     Scratch files written to /home/jcartus/scratch/Butadien_4.mol.dir//
 Using version located at /usr/local/qchem/bin/qchem

 Parallel job on  1  processors
Symmetry disabled for AIMD jobs.

Total Memory Limit in MB = 2000
Mega-Array Size in MB = 192

Checking the input file for inconsistencies... 	...done.
Finally everything over in PARseQInput

--------------------------------------------------------------
User input:
--------------------------------------------------------------
$rem
AIMD_STEPS                    400
FOCK_EXTRAP_POINTS            12
MAX_SCF_CYCLES                100
BASIS                         sto-3g
AIMD_INIT_VELOC               thermal
FOCK_EXTRAP_ORDER             6
AIMD_TEMP                     400
AIMD_METHOD                   bomd
TIME_STEP                     20
METHOD                        hf
JOBTYPE                       aimd
$end

$molecule
0 1
C    4.06325    2.13007    0.82391
C    3.28176    1.06944    0.75373
H    4.11323    3.17949    0.56001
H    4.74859    1.86108    1.60312
C    2.07220    1.72571    -0.53132
C    0.90761    1.20358    -0.97646
H    0.89676    0.00390    -0.27291
H    0.01736    1.56014    -2.00241
H    2.57502    0.23225    0.62917
H    2.26976    2.69634    -0.97895
$end


--------------------------------------------------------------
 ----------------------------------------------------------------
             Standard Nuclear Orientation (Angstroms)
    I     Atom           X                Y                Z
 ----------------------------------------------------------------
    1      C       4.0632500000     2.1300700000     0.8239100000
    2      C       3.2817600000     1.0694400000     0.7537300000
    3      H       4.1132300000     3.1794900000     0.5600100000
    4      H       4.7485900000     1.8610800000     1.6031200000
    5      C       2.0722000000     1.7257100000    -0.5313200000
    6      C       0.9076100000     1.2035800000    -0.9764600000
    7      H       0.8967600000     0.0039000000    -0.2729100000
    8      H       0.0173600000     1.5601400000    -2.0024100000
    9      H       2.5750200000     0.2322500000     0.6291700000
   10      H       2.2697600000     2.6963400000    -0.9789500000
 ----------------------------------------------------------------
 Nuclear Repulsion Energy =    97.7665676793 hartrees
 There are       15 alpha and       15 beta electrons
 Requested basis set is STO-3G
 There are 14 shells and 26 basis functions

 Total QAlloc Memory Limit   2000 MB
 Mega-Array Size       188 MB
 MEM_STATIC part       192 MB

finished with qalloc call

                       Distance Matrix (Angstroms)
             C (  1)   C (  2)   H (  3)   H (  4)   C (  5)   C (  6)
   C (  2)  1.319313
   H (  3)  1.083247  2.276221
   H (  4)  1.072014  1.870761  1.797211
   C (  5)  2.442219  1.882838  2.733181  3.425963
   C (  6)  3.749371  2.940772  4.067058  4.673293  1.351680
   H (  7)  3.968661  2.806705  4.596064  4.669604  2.100730  1.390803
   H (  8)  4.968111  4.300396  5.095532  5.956085  2.532565  1.404369
   H (  9)  2.419602  1.102671  3.325221  2.885493  1.957035  2.510336
   H ( 10)  2.605297  2.583240  2.449533  3.675506  1.086980  2.020839
             H (  7)   H (  8)   H (  9)
   H (  8)  2.487247
   H (  9)  1.918971  3.902580
   H ( 10)  3.103684  2.722449  2.958204

 Job number = 2, Threshold = 1.00E-11
Integral type ranges set in mkLRange.C for JobNum: 2  <1-6|1-6>
Symmetry turned off temporarily
 Using the largest function pair in Schwarz integrals
Total number of integrals generated =            3252
Symmetry turned back on
 A cutoff of  1.0D-11 yielded    102 shell pairs
 There are       372 function pairs
 Job number = 11, Threshold = 1.00E-11
Integral type ranges set in mkLRange.C for JobNum: 11  <1-6|7-7>
Total number of integrals generated =            3720
 Smallest overlap matrix eigenvalue = 1.83E-01
 Multipole matrices computed through 2nd order

 Scale SEOQF with 1.000000e-01/1.000000e-01/1.000000e-01

 Standard Electronic Orientation quadrupole field applied
 Nucleus-field energy     =     0.0000000123 hartrees
 ENuRep (before)= 97.7665676793
 ENucField = 0.0000000123
 ENuRep (after) = 97.7665676916
 Guess from superposition of atomic densities
 Warning:  Energy on first SCF cycle will be non-variational
 SAD guess density has 30.000000 electrons

 ==================================================
    GEN_SCFMAN: A general SCF calculation manager  
                                                   
    Authors:                                       
        -- Eric Jon Sundstrom 2008-2014            
        -- Paul Horn 2010-2015                     
        -- Yuezhi Mao 2012-                        
        -- Dmitri Zuev 2014                        
        -- Alec White 2015-                        
        -- David Stuck 2015                        
        -- Shaama M.S. 2015                        
        -- Shane Yost 2015-                         
        -- Joonho Lee 2016-                        
        -- David Small 2016-                       
        -- Daniel Levine 2016-                     
        -- Susi Lehtola 2017-                      
        -- Hugh Burton 2017-                       
 ==================================================
 Hartree-Fock
Finding J and K together
 Job number = 22, Threshold = 1.00E-11
Integral type ranges set in mkLRange.C for JobNum: 22  <1-6|1-6>
 MakeJK  time:  CPU       0.13 s  wall       0.13 s
 A restricted SCF calculation will be
 performed using DIIS
 SCF converges when DIIS error is below 1.0e-08
 ---------------------------------------
  Cycle       Energy         DIIS error
 ---------------------------------------
Finding J and K together
 Job number = 22, Threshold = 1.00E-11
Integral type ranges set in mkLRange.C for JobNum: 22  <1-6|1-6>
 MakeJK  time:  CPU       0.16 s  wall       0.16 s
    1    -151.8912433748      1.87e-01  
Finding J and K together
 Job number = 22, Threshold = 1.00E-11
Integral type ranges set in mkLRange.C for JobNum: 22  <1-6|1-6>
 MakeJK  time:  CPU       0.16 s  wall       0.17 s
    2    -152.6555107919      1.46e-02  
Finding J and K together
 Job number = 22, Threshold = 1.00E-11
Integral type ranges set in mkLRange.C for JobNum: 22  <1-6|1-6>
 MakeJK  time:  CPU       0.17 s  wall       0.17 s
    3    -152.6891814380      5.89e-03  
Finding J and K together
 Job number = 22, Threshold = 1.00E-11
Integral type ranges set in mkLRange.C for JobNum: 22  <1-6|1-6>
 MakeJK  time:  CPU       0.16 s  wall       0.17 s
    4    -152.6932292421      2.72e-03  
Finding J and K together
 Job number = 22, Threshold = 1.00E-11
Integral type ranges set in mkLRange.C for JobNum: 22  <1-6|1-6>
 MakeJK  time:  CPU       0.16 s  wall       0.17 s
    5    -152.6942284390      4.23e-04  
Finding J and K together
 Job number = 22, Threshold = 1.00E-11
Integral type ranges set in mkLRange.C for JobNum: 22  <1-6|1-6>
 MakeJK  time:  CPU       0.17 s  wall       0.17 s
    6    -152.6942513372      1.20e-04  
Finding J and K together
 Job number = 22, Threshold = 1.00E-11
Integral type ranges set in mkLRange.C for JobNum: 22  <1-6|1-6>
 MakeJK  time:  CPU       0.17 s  wall       0.17 s
    7    -152.6942544245      5.11e-05  
Finding J and K together
 Job number = 22, Threshold = 1.00E-11
Integral type ranges set in mkLRange.C for JobNum: 22  <1-6|1-6>
 MakeJK  time:  CPU       0.17 s  wall       0.17 s
    8    -152.6942548093      1.52e-05  
Finding J and K together
 Job number = 22, Threshold = 1.00E-11
Integral type ranges set in mkLRange.C for JobNum: 22  <1-6|1-6>
 MakeJK  time:  CPU       0.14 s  wall       0.14 s
    9    -152.6942548688      4.04e-06  
Finding J and K together
 Job number = 22, Threshold = 1.00E-11
Integral type ranges set in mkLRange.C for JobNum: 22  <1-6|1-6>
 MakeJK  time:  CPU       0.16 s  wall       0.15 s
   10    -152.6942548743      8.12e-07  
Finding J and K together
 Job number = 22, Threshold = 1.00E-11
Integral type ranges set in mkLRange.C for JobNum: 22  <1-6|1-6>
 MakeJK  time:  CPU       0.12 s  wall       0.12 s
   11    -152.6942548745      1.40e-07  
Finding J and K together
 Job number = 22, Threshold = 1.00E-11
Integral type ranges set in mkLRange.C for JobNum: 22  <1-6|1-6>
 MakeJK  time:  CPU       0.12 s  wall       0.12 s
   12    -152.6942548745      2.37e-08  
   13    -152.6942548745      5.03e-09  Convergence criterion met
 ---------------------------------------
 SCF time:   CPU 2.01s  wall 2.00s 
 Total energy in the final basis set =     -152.6942548745
Wall  1 = 2
Clock 1 = 2.0067260265
 ==================================================
                  Done GEN_SCFMAN                  
 ==================================================

Symmetry turned off temporarily

 --------------------------------------------------------------

                    Orbital Energies (a.u.)
 --------------------------------------------------------------

 Alpha MOs
 -- Occupied --
-11.051 -11.047 -10.998 -10.969  -1.003  -0.917  -0.751  -0.644
 -0.606  -0.539  -0.482  -0.381  -0.361  -0.291  -0.276
 -- Virtual --
  0.287   0.309   0.361   0.391   0.542   0.586   0.703   0.740
  0.823   1.015   1.164
 --------------------------------------------------------------

          Ground-State Mulliken Net Atomic Charges

     Atom                 Charge (a.u.)
  ----------------------------------------
      1 C                    -0.121808
      2 C                    -0.036319
      3 H                     0.100447
      4 H                     0.057493
      5 C                    -0.129099
      6 C                    -0.082415
      7 H                    -0.030842
      8 H                     0.049113
      9 H                     0.168620
     10 H                     0.024811
  ----------------------------------------
  Sum of atomic charges =     0.000000

 -----------------------------------------------------------------
                    Cartesian Multipole Moments
 -----------------------------------------------------------------
    Charge (ESU x 10^10)
                 0.0000
    Dipole Moment (Debye)
         X       0.4391      Y       0.0101      Z       0.3449
       Tot       0.5584
    Quadrupole Moments (Debye-Ang)
        XX     -21.9611     XY       1.1012     YY     -22.1449
        XZ       2.2485     YZ      -0.4697     ZZ     -23.5180
    Octopole Moments (Debye-Ang^2)
       XXX    -177.6670    XXY     -28.9444    XYY     -51.9638
       YYY    -101.3300    XXZ       6.3136    XYZ       2.4738
       YYZ      -0.6871    XZZ     -63.0194    YZZ     -35.4974
       ZZZ      -2.2615
    Hexadecapole Moments (Debye-Ang^3)
      XXXX   -1188.7843   XXXY    -275.0448   XXYY    -226.8124
      XYYY    -267.1214   YYYY    -379.3301   XXXZ     -53.8754
      XXYZ       7.3037   XYYZ     -20.3637   YYYZ      -4.7001
      XXZZ    -221.9007   XYZZ    -106.3932   YYZZ     -89.0358
      XZZZ     -73.0388   YZZZ     -10.7139   ZZZZ    -125.1440
 -----------------------------------------------------------------
drvman_main.C: 73: calling DrvMan  Calculating analytic gradient of the SCF energy
drvman.C : 218: Calculating analytic gradient of the SCF energy
drvman.C: 244: calling SCF_Grad for normal SCF gradient
 Job number = 111, Threshold = 1.00E-11
Integral type ranges set in mkLRange.C for JobNum: 11  <1-6|7-7>
Finding J and K together
 ML is being used
 Job number = 122, Threshold = 1.00E-11
Integral type ranges set in mkLRange.C for JobNum: 22  <1-6|1-6>
Total number of integrals generated =           69970
 MakeJK  time:  CPU       0.42 s  wall       0.42 s
 Gradient of SCF Energy
            1           2           3           4           5           6
    1  -0.0292244   0.1571867   0.0186350  -0.0376837   0.0227563  -0.0017975
    2   0.0820467  -0.1127842   0.0095907  -0.0243357  -0.0020675   0.0990150
    3  -0.0916101   0.1813154   0.0223800  -0.0083999   0.0047404  -0.0283504
            7           8           9          10
    1   0.0359478  -0.0917058  -0.0525867  -0.0215276
    2  -0.1019092   0.0368164   0.0196032  -0.0059754
    3   0.0841615  -0.1102526  -0.0464775  -0.0075068
 Max gradient component =       1.813E-01
 RMS gradient           =       7.000E-02
drvman.C: 248: out of SCF_Grad for normal SCF gradient
 Gradient time:  CPU 0.44 s  wall 0.44 s
 ------------------------------------------------------------------------------
                     drvman        : Timing summary (seconds)
 ------------------------------------------------------------------------------
     job step          cpu (% of tot)      sys (% of tot)     wall (% of tot)
 ------------------------------------------------------------------------------
 ------------------------------------------------------------------------------
   Grand Totals     0.4400E+00          0.0000E+00          0.4431E+00
 ------------------------------------------------------------------------------
drvman_main.C: 77: out of DrvMan =======================================================
            AB INITIO MOLECULAR DYNAMICS
=======================================================
Directory /home/jcartus/scratch/Butadien_4.mol.dir/AIMD already exists
AIMD will take 400 BOMD steps Velocity Verlet integration
Time step = 20.00000 a.u. ( = 0.48378 fs)
Total simulation time requested = 193.511 fs
Integral threshold = 10**(-11)
SCF convergence threshold = 10**(-8)
Generating viewable xyz trajectory,
 file (in Angstroms) at AIMD/View.xyz
Choosing nuclear velocities from Maxwell-Boltzmann
Velocities sampled from Maxwell-Boltzmann at T = 400.0 K
sqrt(kT/m) and (vx,vy,vz) for each atom:
  1   2.4064e-04  -1.44e-04   3.45e-04  -2.66e-04 
  2   2.4064e-04   1.28e-05   1.43e-04   8.08e-05 
  3   8.3036e-04   1.12e-03   8.92e-04  -7.88e-04 
  4   8.3036e-04   1.36e-04  -9.00e-04   5.04e-04 
  5   2.4064e-04  -6.52e-05   1.43e-04  -5.34e-05 
  6   2.4064e-04   5.31e-04  -3.50e-04   5.45e-04 
  7   8.3036e-04   5.84e-04  -6.34e-04   1.85e-04 
  8   8.3036e-04  -6.01e-04  -6.09e-04  -3.87e-04 
  9   8.3036e-04   5.62e-04   5.83e-05   7.81e-04 
 10   8.3036e-04   2.91e-04   1.16e-03  -1.71e-04 
T(nuclear) = 0.01774031 a.u.
v(c.o.m.) = (  1.1340e-04,   6.1702e-05,   7.0259e-05)
T(c.o.m.) = 1.06416e-03 a.u.
kT/2 = 0.000633 a.u.
Tx   = 0.005543 a.u.
Ty   = 0.006516 a.u.
Tz   = 0.005681 a.u.
Mean velocities (a.u.):   2.4259e-04   2.4948e-05   4.2978e-05
Removing c.o.m. velocity
T(nuclear) = 0.01819670 a.u.
v(c.o.m.) = ( -5.6344e-21,  -1.8030e-20,   1.1269e-20)
T(c.o.m.) = 2.38333e-35 a.u.
kT   = 0.001267 a.u. = 0.79 kcal/mol
Tx   = 0.004985 a.u. = 3.13 kcal/mol
Ty   = 0.007002 a.u. = 4.39 kcal/mol
Tz   = 0.006210 a.u. = 3.90 kcal/mol
Initial velocities in m/s
  1     -4.2624e+02      6.9404e+02     -6.5132e+02 
  2     -8.3788e+01      2.5196e+02      1.0764e+02 
  3      1.1189e+03      1.2270e+03     -2.5482e+03 
  4     -1.0324e+03     -2.6918e+03      2.7858e+02 
  5     -2.5439e+02      2.5102e+02     -1.8611e+02 
  6      1.0507e+03     -8.2654e+02      1.1224e+03 
  7     -5.3193e+01     -2.1119e+03     -4.2053e+02 
  8     -2.6457e+03     -2.0569e+03     -1.6699e+03 
  9     -1.0152e+02     -5.9628e+02      8.8323e+02 
 10     -6.9459e+02      1.8186e+03     -1.1981e+03 
----------------------------------------------------------------------------
       Nuclear coordinates (Angst) and velocities (a.u.)
----------------------------------------------------------------------------
             x        y        z            v_x         v_y        v_z
----------------------------------------------------------------------------
1      C    4.0633   2.1301   0.8239    -1.9483e-04   3.1725e-04  -2.9772e-04
2      C    3.2818   1.0694   0.7537    -3.8300e-05   1.1517e-04   4.9201e-05
3      H    4.1132   3.1795   0.5600     5.1147e-04   5.6086e-04  -1.1648e-03
4      H    4.7486   1.8611   1.6031    -4.7189e-04  -1.2304e-03   1.2734e-04
5      C    2.0722   1.7257  -0.5313    -1.1628e-04   1.1474e-04  -8.5073e-05
6      C    0.9076   1.2036  -0.9765     4.8026e-04  -3.7781e-04   5.1306e-04
7      H    0.8968   0.0039  -0.2729    -2.4315e-05  -9.6534e-04  -1.9223e-04
8      H    0.0174   1.5601  -2.0024    -1.2093e-03  -9.4020e-04  -7.6333e-04
9      H    2.5750   0.2323   0.6292    -4.6403e-05  -2.7256e-04   4.0373e-04
10     H    2.2698   2.6963  -0.9789    -3.1750e-04   8.3129e-04  -5.4767e-04
----------------------------------------------------------------------------
Write nuclear velocities every 1 time steps

TIME STEP #1 (t = 0.000 a.u. = 0.00000 fs)
--------------------------------------
 Instantaneous Temperature = 383.1 K
 ----------------------------------------------------------------
             Standard Nuclear Orientation (Angstroms)
    I     Atom           X                Y                Z
 ----------------------------------------------------------------
    1      C       4.0613293536     2.1330306277     0.8212023190
    2      C       3.2805941405     1.0712046032     0.7533734727
    3      H       4.1175696611     3.1848734353     0.5463933490
    4      H       4.7457666033     1.8494596889     1.6049515978
    5      C       2.0708592338     1.7269343802    -0.5322433060
    6      C       0.9127015926     1.1991023350    -0.9708928283
    7      H       0.8944317801    -0.0004459525    -0.2797928113
    8      H       0.0098438520     1.5480684390    -2.0041372543
    9      H       2.5775583088     0.2282360353     0.6361203506
   10      H       2.2676398826     2.7054822304    -0.9843138490
 ----------------------------------------------------------------
 Nuclear Repulsion Energy =    97.7509131668 hartrees
 There are       15 alpha and       15 beta electrons

                       Distance Matrix (Angstroms)
             C (  1)   C (  2)   H (  3)   H (  4)   C (  5)   C (  6)
   C (  2)  1.319706
   H (  3)  1.088603  2.282754
   H (  4)  1.078485  1.864832  1.816179
   C (  5)  2.441045  1.883149  2.734605  3.426039
   C (  6)  3.741348  2.931956  4.064065  4.663725  1.346235
   H (  7)  3.974060  2.812408  4.606242  4.669817  2.105126  1.384510
   H (  8)  4.973858  4.304541  5.104679  5.961990  2.538946  1.415812
   H (  9)  2.421585  1.103904  3.334875  2.875435  1.966701  2.509347
   H ( 10)  2.608623  2.591621  2.448494  3.684859  1.095740  2.026134
             H (  7)   H (  8)   H (  9)
   H (  8)  2.480677
   H (  9)  1.929795  3.912298
   H ( 10)  3.115140  2.734463  2.976341

 Applying Cartesian multipole field
    Component          Value
    ---------          -----
     (2,0,0)        1.00000E-11
     (0,2,0)        2.00000E-11
     (0,0,2)       -3.00000E-11
 Nucleus-field energy     =     0.0000000123 hartrees
 ENuRep (before)= 97.7509131668
 ENucField = 0.0000000123
 ENuRep (after) = 97.7509131792
 Job number = 2, Threshold = 1.00E-11
Integral type ranges set in mkLRange.C for JobNum: 2  <1-6|1-6>
Symmetry turned off temporarily
Symmetry turned back on
 Job number = 11, Threshold = 1.00E-11
Integral type ranges set in mkLRange.C for JobNum: 11  <1-6|7-7>
 Smallest overlap matrix eigenvalue = 1.84E-01
 Multipole matrices computed through 2nd order
 Guess from superposition of atomic densities
 Warning:  Energy on first SCF cycle will be non-variational
 SAD guess density has 30.000000 electrons
 SCF convergence criterion is 10**(-8)
 A restricted Hartree-Fock SCF calculation will be
 performed using Pulay DIIS extrapolation
 SCF converges when DIIS error is below 1.0E-08
Finding J and K together
 Job number = 22, Threshold = 1.00E-11
Integral type ranges set in mkLRange.C for JobNum: 22  <1-6|1-6>
 MakeJK  time:  CPU       0.13 s  wall       0.13 s
Fock build time:  0.13 s (CPU) 0.13 s (wall)
DIIS Errors:  Max 1.14E+00 RMS 1.87E-01

Current DIIS subspace size = 1
REM_GRID_RESTART_DIIS = 0

 ---------------------------------------
  Cycle       Energy         DIIS Error
 ---------------------------------------
    1    -151.8803630525      1.87E-01  00000
Finding J and K together
 Job number = 22, Threshold = 1.00E-11
Integral type ranges set in mkLRange.C for JobNum: 22  <1-6|1-6>
 MakeJK  time:  CPU       0.12 s  wall       0.13 s
Fock build time:  0.12 s (CPU) 0.13 s (wall)
DIIS Errors:  Max 6.46E-02 RMS 1.46E-02

Current DIIS subspace size = 2
REM_GRID_RESTART_DIIS = 0

    2    -152.6562424651      1.46E-02  00000
Finding J and K together
 Job number = 22, Threshold = 1.00E-11
Integral type ranges set in mkLRange.C for JobNum: 22  <1-6|1-6>
 MakeJK  time:  CPU       0.10 s  wall       0.10 s
Fock build time:  0.10 s (CPU) 0.10 s (wall)
DIIS Errors:  Max 3.31E-02 RMS 5.82E-03

Current DIIS subspace size = 3
REM_GRID_RESTART_DIIS = 0

    3    -152.6901296744      5.82E-03  00000
Finding J and K together
 Job number = 22, Threshold = 1.00E-11
Integral type ranges set in mkLRange.C for JobNum: 22  <1-6|1-6>
 MakeJK  time:  CPU       0.13 s  wall       0.13 s
Fock build time:  0.13 s (CPU) 0.13 s (wall)
DIIS Errors:  Max 1.14E-02 RMS 2.70E-03

Current DIIS subspace size = 4
REM_GRID_RESTART_DIIS = 0

    4    -152.6941302654      2.70E-03  00000
Finding J and K together
 Job number = 22, Threshold = 1.00E-11
Integral type ranges set in mkLRange.C for JobNum: 22  <1-6|1-6>
 MakeJK  time:  CPU       0.12 s  wall       0.13 s
Fock build time:  0.12 s (CPU) 0.13 s (wall)
DIIS Errors:  Max 2.59E-03 RMS 4.23E-04

Current DIIS subspace size = 5
REM_GRID_RESTART_DIIS = 0

    5    -152.6951147408      4.23E-04  00000
Finding J and K together
 Job number = 22, Threshold = 1.00E-11
Integral type ranges set in mkLRange.C for JobNum: 22  <1-6|1-6>
 MakeJK  time:  CPU       0.16 s  wall       0.17 s
Fock build time:  0.16 s (CPU) 0.17 s (wall)
DIIS Errors:  Max 5.98E-04 RMS 1.17E-04

Current DIIS subspace size = 6
REM_GRID_RESTART_DIIS = 0

    6    -152.6951375624      1.17E-04  00000
Finding J and K together
 Job number = 22, Threshold = 1.00E-11
Integral type ranges set in mkLRange.C for JobNum: 22  <1-6|1-6>
 MakeJK  time:  CPU       0.16 s  wall       0.18 s
Fock build time:  0.16 s (CPU) 0.18 s (wall)
DIIS Errors:  Max 2.99E-04 RMS 4.85E-05

Current DIIS subspace size = 7
REM_GRID_RESTART_DIIS = 0

    7    -152.6951405784      4.85E-05  00000
Finding J and K together
 Job number = 22, Threshold = 1.00E-11
Integral type ranges set in mkLRange.C for JobNum: 22  <1-6|1-6>
 MakeJK  time:  CPU       0.13 s  wall       0.13 s
Fock build time:  0.13 s (CPU) 0.13 s (wall)
DIIS Errors:  Max 8.27E-05 RMS 1.49E-05

Current DIIS subspace size = 8
REM_GRID_RESTART_DIIS = 0

    8    -152.6951409226      1.49E-05  00000
Finding J and K together
 Job number = 22, Threshold = 1.00E-11
Integral type ranges set in mkLRange.C for JobNum: 22  <1-6|1-6>
 MakeJK  time:  CPU       0.11 s  wall       0.11 s
Fock build time:  0.11 s (CPU) 0.11 s (wall)
DIIS Errors:  Max 2.13E-05 RMS 4.05E-06

Current DIIS subspace size = 9
REM_GRID_RESTART_DIIS = 0

    9    -152.6951409788      4.05E-06  00000
Finding J and K together
 Job number = 22, Threshold = 1.00E-11
Integral type ranges set in mkLRange.C for JobNum: 22  <1-6|1-6>
 MakeJK  time:  CPU       0.12 s  wall       0.12 s
Fock build time:  0.12 s (CPU) 0.12 s (wall)
DIIS Errors:  Max 4.26E-06 RMS 8.42E-07

Current DIIS subspace size = 10
REM_GRID_RESTART_DIIS = 0

   10    -152.6951409842      8.42E-07  00000
Finding J and K together
 Job number = 22, Threshold = 1.00E-11
Integral type ranges set in mkLRange.C for JobNum: 22  <1-6|1-6>
 MakeJK  time:  CPU       0.12 s  wall       0.11 s
Fock build time:  0.12 s (CPU) 0.11 s (wall)
DIIS Errors:  Max 7.51E-07 RMS 1.44E-07

Current DIIS subspace size = 11
REM_GRID_RESTART_DIIS = 0

   11    -152.6951409845      1.44E-07  00000
Finding J and K together
 Job number = 22, Threshold = 1.00E-11
Integral type ranges set in mkLRange.C for JobNum: 22  <1-6|1-6>
 MakeJK  time:  CPU       0.11 s  wall       0.11 s
Fock build time:  0.11 s (CPU) 0.11 s (wall)
DIIS Errors:  Max 8.89E-08 RMS 2.31E-08

Current DIIS subspace size = 12
REM_GRID_RESTART_DIIS = 0

   12    -152.6951409845      2.31E-08  00000
Finding J and K together
 Job number = 22, Threshold = 1.00E-11
Integral type ranges set in mkLRange.C for JobNum: 22  <1-6|1-6>
 MakeJK  time:  CPU       0.13 s  wall       0.13 s
Fock build time:  0.13 s (CPU) 0.13 s (wall)
DIIS Errors:  Max 2.31E-08 RMS 4.75E-09

Current DIIS subspace size = 13
REM_GRID_RESTART_DIIS = 0

   13    -152.6951409845      4.75E-09  00000 Convergence criterion met
 ---------------------------------------
 SCF time:  CPU 1.66 s  wall 1.69 s
 SCF   energy in the final basis set = -152.69514098
 Total energy in the final basis set = -152.69514098
drvman_main.C: 73: calling DrvMan  Calculating analytic gradient of the SCF energy
drvman.C : 218: Calculating analytic gradient of the SCF energy
drvman.C: 244: calling SCF_Grad for normal SCF gradient
 Job number = 111, Threshold = 1.00E-11
Integral type ranges set in mkLRange.C for JobNum: 11  <1-6|7-7>
 Warning:  Cost of integrals step H3 set to -477943453
 Warning:  Retrieved cost of -477943453 for integrals step H3
 Warning:  Retrieved cost of -477943453 for integrals step H3
 Warning:  Retrieved cost of -477943453 for integrals step H3
Finding J and K together
 ML is being used
 Job number = 122, Threshold = 1.00E-11
Integral type ranges set in mkLRange.C for JobNum: 22  <1-6|1-6>
 MakeJK  time:  CPU       0.41 s  wall       0.43 s
 Gradient of SCF Energy
            1           2           3           4           5           6
    1  -0.0330645   0.1587313   0.0182907  -0.0351486   0.0157004   0.0077615
    2   0.0821491  -0.1131633   0.0143203  -0.0282530  -0.0082399   0.1013263
    3  -0.0946115   0.1829574   0.0197740  -0.0045504   0.0040119  -0.0216631
            7           8           9          10
    1   0.0338213  -0.0935747  -0.0530073  -0.0195102
    2  -0.1024955   0.0355946   0.0177658   0.0009956
    3   0.0821370  -0.1113082  -0.0462391  -0.0105080
 Max gradient component =       1.830E-01
 RMS gradient           =       7.046E-02
drvman.C: 248: out of SCF_Grad for normal SCF gradient
 Gradient time:  CPU 0.42 s  wall 0.44 s
 ------------------------------------------------------------------------------
                     drvman        : Timing summary (seconds)
 ------------------------------------------------------------------------------
     job step          cpu (% of tot)      sys (% of tot)     wall (% of tot)
 ------------------------------------------------------------------------------
 ------------------------------------------------------------------------------
   Grand Totals     0.4240E+00          0.1000E-05          0.4442E+00
 ------------------------------------------------------------------------------
drvman_main.C: 77: out of DrvMan  Time for this dynamics step: 2.1 s (CPU) 2.2 s (wall)

TIME STEP #2 (t = 20.000 a.u. = 0.48378 fs)
--------------------------------------
 Instantaneous Temperature = 401.8 K
 ----------------------------------------------------------------
             Standard Nuclear Orientation (Angstroms)
    I     Atom           X                Y                Z
 ----------------------------------------------------------------
    1      C       4.0597286566     2.1351963372     0.8194101493
    2      C       3.2778923120     1.0740642348     0.7512465518
    3      H       4.1198019319     3.1886069395     0.5304984166
    4      H       4.7469928967     1.8410945816     1.6073074728
    5      C       2.0693665421     1.7282384939    -0.5332054329
    6      C       0.9177180811     1.1936441823    -0.9651160328
    7      H       0.8882067925     0.0070172475    -0.2961391378
    8      H       0.0131090321     1.5318958000    -1.9930399970
    9      H       2.5862039212     0.2221751657     0.6483981915
   10      H       2.2677676582     2.7145097479    -0.9884670037
 ----------------------------------------------------------------
 Nuclear Repulsion Energy =    97.8214434560 hartrees
 There are       15 alpha and       15 beta electrons

                       Distance Matrix (Angstroms)
             C (  1)   C (  2)   H (  3)   H (  4)   C (  5)   C (  6)
   C (  2)  1.319817
   H (  3)  1.093962  2.286664
   H (  4)  1.086099  1.865324  1.835395
   C (  5)  2.440640  1.881036  2.732842  3.429900
   C (  6)  3.734071  2.920723  4.058335  4.658315  1.341131
   H (  7)  3.978963  2.818901  4.609669  4.677305  2.100938  1.362529
   H (  8)  4.964774  4.289467  5.096848  5.955482  2.529400  1.410447
   H (  9)  2.420779  1.102146  3.341488  2.865208  1.982810  2.516153
   H ( 10)  2.610584  2.595769  2.441732  3.694246  1.104245  2.033768
             H (  7)   H (  8)   H (  9)
   H (  8)  2.443465
   H (  9)  1.954901  3.913232
   H ( 10)  3.116572  2.737011  2.998743

 Applying Cartesian multipole field
    Component          Value
    ---------          -----
     (2,0,0)        1.00000E-11
     (0,2,0)        2.00000E-11
     (0,0,2)       -3.00000E-11
 Nucleus-field energy     =     0.0000000123 hartrees
 ENuRep (before)= 97.8214434560
 ENucField = 0.0000000123
 ENuRep (after) = 97.8214434683
 Job number = 2, Threshold = 1.00E-11
Integral type ranges set in mkLRange.C for JobNum: 2  <1-6|1-6>
Symmetry turned off temporarily
Symmetry turned back on
 Job number = 11, Threshold = 1.00E-11
Integral type ranges set in mkLRange.C for JobNum: 11  <1-6|7-7>
 Smallest overlap matrix eigenvalue = 1.84E-01
 Multipole matrices computed through 2nd order
 Guess from superposition of atomic densities
 Warning:  Energy on first SCF cycle will be non-variational
 SAD guess density has 30.000000 electrons
 SCF convergence criterion is 10**(-8)
 A restricted Hartree-Fock SCF calculation will be
 performed using Pulay DIIS extrapolation
 SCF converges when DIIS error is below 1.0E-08
Finding J and K together
 Job number = 22, Threshold = 1.00E-11
Integral type ranges set in mkLRange.C for JobNum: 22  <1-6|1-6>
 MakeJK  time:  CPU       0.10 s  wall       0.11 s
Fock build time:  0.10 s (CPU) 0.11 s (wall)
DIIS Errors:  Max 1.14E+00 RMS 1.87E-01

Current DIIS subspace size = 1
REM_GRID_RESTART_DIIS = 0

 ---------------------------------------
  Cycle       Energy         DIIS Error
 ---------------------------------------
    1    -151.8848330515      1.87E-01  00000
Finding J and K together
 Job number = 22, Threshold = 1.00E-11
Integral type ranges set in mkLRange.C for JobNum: 22  <1-6|1-6>
 MakeJK  time:  CPU       0.14 s  wall       0.14 s
Fock build time:  0.14 s (CPU) 0.14 s (wall)
DIIS Errors:  Max 6.43E-02 RMS 1.46E-02

Current DIIS subspace size = 2
REM_GRID_RESTART_DIIS = 0

    2    -152.6692751874      1.46E-02  00000
Finding J and K together
 Job number = 22, Threshold = 1.00E-11
Integral type ranges set in mkLRange.C for JobNum: 22  <1-6|1-6>
 MakeJK  time:  CPU       0.14 s  wall       0.14 s
Fock build time:  0.14 s (CPU) 0.14 s (wall)
DIIS Errors:  Max 3.21E-02 RMS 5.69E-03

Current DIIS subspace size = 3
REM_GRID_RESTART_DIIS = 0

    3    -152.7031266463      5.69E-03  00000
Finding J and K together
 Job number = 22, Threshold = 1.00E-11
Integral type ranges set in mkLRange.C for JobNum: 22  <1-6|1-6>
 MakeJK  time:  CPU       0.12 s  wall       0.12 s
Fock build time:  0.12 s (CPU) 0.12 s (wall)
DIIS Errors:  Max 1.12E-02 RMS 2.65E-03

Current DIIS subspace size = 4
REM_GRID_RESTART_DIIS = 0

    4    -152.7069841779      2.65E-03  00000
Finding J and K together
 Job number = 22, Threshold = 1.00E-11
Integral type ranges set in mkLRange.C for JobNum: 22  <1-6|1-6>
 MakeJK  time:  CPU       0.16 s  wall       0.16 s
Fock build time:  0.16 s (CPU) 0.16 s (wall)
DIIS Errors:  Max 2.47E-03 RMS 4.14E-04

Current DIIS subspace size = 5
REM_GRID_RESTART_DIIS = 0

    5    -152.7079226072      4.14E-04  00000
Finding J and K together
 Job number = 22, Threshold = 1.00E-11
Integral type ranges set in mkLRange.C for JobNum: 22  <1-6|1-6>
 MakeJK  time:  CPU       0.15 s  wall       0.15 s
Fock build time:  0.15 s (CPU) 0.15 s (wall)
DIIS Errors:  Max 5.61E-04 RMS 1.11E-04

Current DIIS subspace size = 6
REM_GRID_RESTART_DIIS = 0

    6    -152.7079441985      1.11E-04  00000
Finding J and K together
 Job number = 22, Threshold = 1.00E-11
Integral type ranges set in mkLRange.C for JobNum: 22  <1-6|1-6>
 MakeJK  time:  CPU       0.14 s  wall       0.14 s
Fock build time:  0.14 s (CPU) 0.14 s (wall)
DIIS Errors:  Max 2.65E-04 RMS 4.33E-05

Current DIIS subspace size = 7
REM_GRID_RESTART_DIIS = 0

    7    -152.7079469118      4.33E-05  00000
Finding J and K together
 Job number = 22, Threshold = 1.00E-11
Integral type ranges set in mkLRange.C for JobNum: 22  <1-6|1-6>
 MakeJK  time:  CPU       0.11 s  wall       0.11 s
Fock build time:  0.11 s (CPU) 0.11 s (wall)
DIIS Errors:  Max 7.25E-05 RMS 1.39E-05

Current DIIS subspace size = 8
REM_GRID_RESTART_DIIS = 0

    8    -152.7079471835      1.39E-05  00000
Finding J and K together
 Job number = 22, Threshold = 1.00E-11
Integral type ranges set in mkLRange.C for JobNum: 22  <1-6|1-6>
 MakeJK  time:  CPU       0.16 s  wall       0.17 s
Fock build time:  0.16 s (CPU) 0.17 s (wall)
DIIS Errors:  Max 1.96E-05 RMS 3.81E-06

Current DIIS subspace size = 9
REM_GRID_RESTART_DIIS = 0

    9    -152.7079472307      3.81E-06  00000
Finding J and K together
 Job number = 22, Threshold = 1.00E-11
Integral type ranges set in mkLRange.C for JobNum: 22  <1-6|1-6>
 MakeJK  time:  CPU       0.17 s  wall       0.17 s
Fock build time:  0.17 s (CPU) 0.17 s (wall)
DIIS Errors:  Max 3.81E-06 RMS 7.89E-07

Current DIIS subspace size = 10
REM_GRID_RESTART_DIIS = 0

   10    -152.7079472355      7.89E-07  00000
Finding J and K together
 Job number = 22, Threshold = 1.00E-11
Integral type ranges set in mkLRange.C for JobNum: 22  <1-6|1-6>
 MakeJK  time:  CPU       0.16 s  wall       0.15 s
Fock build time:  0.16 s (CPU) 0.15 s (wall)
DIIS Errors:  Max 7.08E-07 RMS 1.35E-07

Current DIIS subspace size = 11
REM_GRID_RESTART_DIIS = 0

   11    -152.7079472358      1.35E-07  00000
Finding J and K together
 Job number = 22, Threshold = 1.00E-11
Integral type ranges set in mkLRange.C for JobNum: 22  <1-6|1-6>
 MakeJK  time:  CPU       0.16 s  wall       0.16 s
Fock build time:  0.16 s (CPU) 0.16 s (wall)
DIIS Errors:  Max 8.39E-08 RMS 2.12E-08

Current DIIS subspace size = 12
REM_GRID_RESTART_DIIS = 0

   12    -152.7079472358      2.12E-08  00000
Finding J and K together
 Job number = 22, Threshold = 1.00E-11
Integral type ranges set in mkLRange.C for JobNum: 22  <1-6|1-6>
 MakeJK  time:  CPU       0.17 s  wall       0.17 s
Fock build time:  0.17 s (CPU) 0.17 s (wall)
DIIS Errors:  Max 2.10E-08 RMS 4.20E-09

Current DIIS subspace size = 13
REM_GRID_RESTART_DIIS = 0

   13    -152.7079472358      4.20E-09  00000 Convergence criterion met
 ---------------------------------------
 SCF time:  CPU 1.90 s  wall 1.93 s
 SCF   energy in the final basis set = -152.70794724
 Total energy in the final basis set = -152.70794724
drvman_main.C: 73: calling DrvMan  Calculating analytic gradient of the SCF energy
drvman.C : 218: Calculating analytic gradient of the SCF energy
drvman.C: 244: calling SCF_Grad for normal SCF gradient
 Job number = 111, Threshold = 1.00E-11
Integral type ranges set in mkLRange.C for JobNum: 11  <1-6|7-7>
Finding J and K together
 ML is being used
 Job number = 122, Threshold = 1.00E-11
Integral type ranges set in mkLRange.C for JobNum: 22  <1-6|1-6>
 MakeJK  time:  CPU       0.42 s  wall       0.43 s
 Gradient of SCF Energy
            1           2           3           4           5           6
    1  -0.0373285   0.1591748   0.0178466  -0.0313555   0.0079265   0.0159166
    2   0.0817607  -0.1149791   0.0188933  -0.0316623  -0.0133976   0.1017513
    3  -0.0973763   0.1843878   0.0169476   0.0000325   0.0021751  -0.0151482
            7           8           9          10
    1   0.0313798  -0.0939698  -0.0523440  -0.0172463
    2  -0.1009487   0.0336811   0.0172165   0.0076848
    3   0.0786015  -0.1105955  -0.0458261  -0.0131984
 Max gradient component =       1.844E-01
 RMS gradient           =       7.056E-02
drvman.C: 248: out of SCF_Grad for normal SCF gradient
 Gradient time:  CPU 0.44 s  wall 0.45 s
 ------------------------------------------------------------------------------
                     drvman        : Timing summary (seconds)
 ------------------------------------------------------------------------------
     job step          cpu (% of tot)      sys (% of tot)     wall (% of tot)
 ------------------------------------------------------------------------------
 ------------------------------------------------------------------------------
   Grand Totals     0.4400E+00          0.2000E-05          0.4459E+00
 ------------------------------------------------------------------------------
drvman_main.C: 77: out of DrvMan  Time for this dynamics step: 2.4 s (CPU) 2.4 s (wall)

TIME STEP #3 (t = 40.000 a.u. = 0.96755 fs)
--------------------------------------
 Instantaneous Temperature = 670.6 K
 ----------------------------------------------------------------
             Standard Nuclear Orientation (Angstroms)
    I     Atom           X                Y                Z
 ----------------------------------------------------------------
    1      C       4.0584891702     2.1365708865     0.8185602448
    2      C       3.2736502237     1.0780364656     0.7473353964
    3      H       4.1199779894     3.1901636316     0.5126508403
    4      H       4.7518318528     1.8363774831     1.6096595996
    5      C       2.0677971493     1.7296722500    -0.5341886074
    6      C       0.9225805525     1.1872014302    -0.9591926557
    7      H       0.8783663470     0.0261113807    -0.3215416332
    8      H       0.0272010601     1.5118425460    -1.9692003416
    9      H       2.6008804161     0.2141306705     0.6659559485
   10      H       2.2698824873     2.7226518532    -0.9910994828
 ----------------------------------------------------------------
 Nuclear Repulsion Energy =    97.9857577144 hartrees
 There are       15 alpha and       15 beta electrons

                       Distance Matrix (Angstroms)
             C (  1)   C (  2)   H (  3)   H (  4)   C (  5)   C (  6)
   C (  2)  1.319674
   H (  3)  1.098826  2.287450
   H (  4)  1.093928  1.871819  1.853484
   C (  5)  2.440973  1.876437  2.727701  3.436788
   C (  6)  3.727684  2.907178  4.049880  4.656565  1.336572
   H (  7)  3.983347  2.826027  4.605991  4.691518  2.088560  1.325399
   H (  8)  4.940969  4.255254  5.072196  5.935966  2.504145  1.388241
   H (  9)  2.417372  1.097987  3.344837  2.854620  2.005341  2.530744
   H ( 10)  2.611029  2.595085  2.429544  3.702635  1.111582  2.043000
             H (  7)   H (  8)   H (  9)
   H (  8)  2.376270
   H (  9)  1.994381  3.905372
   H ( 10)  3.107403  2.729901  3.024578

 Applying Cartesian multipole field
    Component          Value
    ---------          -----
     (2,0,0)        1.00000E-11
     (0,2,0)        2.00000E-11
     (0,0,2)       -3.00000E-11
 Nucleus-field energy     =     0.0000000123 hartrees
 ENuRep (before)= 97.9857577144
 ENucField = 0.0000000123
 ENuRep (after) = 97.9857577268
 Job number = 2, Threshold = 1.00E-11
Integral type ranges set in mkLRange.C for JobNum: 2  <1-6|1-6>
Symmetry turned off temporarily
Symmetry turned back on
 Job number = 11, Threshold = 1.00E-11
Integral type ranges set in mkLRange.C for JobNum: 11  <1-6|7-7>
 Smallest overlap matrix eigenvalue = 1.85E-01
 Multipole matrices computed through 2nd order
 Guess from superposition of atomic densities
 Warning:  Energy on first SCF cycle will be non-variational
 SAD guess density has 30.000000 electrons
 SCF convergence criterion is 10**(-8)
 A restricted Hartree-Fock SCF calculation will be
 performed using Pulay DIIS extrapolation
 SCF converges when DIIS error is below 1.0E-08
Finding J and K together
 Job number = 22, Threshold = 1.00E-11
Integral type ranges set in mkLRange.C for JobNum: 22  <1-6|1-6>
 MakeJK  time:  CPU       0.13 s  wall       0.13 s
Fock build time:  0.13 s (CPU) 0.13 s (wall)
DIIS Errors:  Max 1.14E+00 RMS 1.88E-01

Current DIIS subspace size = 1
REM_GRID_RESTART_DIIS = 0

 ---------------------------------------
  Cycle       Energy         DIIS Error
 ---------------------------------------
    1    -151.9070479980      1.88E-01  00000
Finding J and K together
 Job number = 22, Threshold = 1.00E-11
Integral type ranges set in mkLRange.C for JobNum: 22  <1-6|1-6>
 MakeJK  time:  CPU       0.17 s  wall       0.17 s
Fock build time:  0.17 s (CPU) 0.17 s (wall)
DIIS Errors:  Max 6.37E-02 RMS 1.45E-02

Current DIIS subspace size = 2
REM_GRID_RESTART_DIIS = 0

    2    -152.6940508960      1.45E-02  00000
Finding J and K together
 Job number = 22, Threshold = 1.00E-11
Integral type ranges set in mkLRange.C for JobNum: 22  <1-6|1-6>
 MakeJK  time:  CPU       0.16 s  wall       0.17 s
Fock build time:  0.17 s (CPU) 0.17 s (wall)
DIIS Errors:  Max 3.09E-02 RMS 5.49E-03

Current DIIS subspace size = 3
REM_GRID_RESTART_DIIS = 0

    3    -152.7275670160      5.49E-03  00000
Finding J and K together
 Job number = 22, Threshold = 1.00E-11
Integral type ranges set in mkLRange.C for JobNum: 22  <1-6|1-6>
 MakeJK  time:  CPU       0.15 s  wall       0.15 s
Fock build time:  0.15 s (CPU) 0.15 s (wall)
DIIS Errors:  Max 1.09E-02 RMS 2.57E-03

Current DIIS subspace size = 4
REM_GRID_RESTART_DIIS = 0

    4    -152.7311926540      2.57E-03  00000
Finding J and K together
 Job number = 22, Threshold = 1.00E-11
Integral type ranges set in mkLRange.C for JobNum: 22  <1-6|1-6>
 MakeJK  time:  CPU       0.13 s  wall       0.14 s
Fock build time:  0.14 s (CPU) 0.14 s (wall)
DIIS Errors:  Max 2.29E-03 RMS 3.97E-04

Current DIIS subspace size = 5
REM_GRID_RESTART_DIIS = 0

    5    -152.7320558420      3.97E-04  00000
Finding J and K together
 Job number = 22, Threshold = 1.00E-11
Integral type ranges set in mkLRange.C for JobNum: 22  <1-6|1-6>
 MakeJK  time:  CPU       0.11 s  wall       0.11 s
Fock build time:  0.11 s (CPU) 0.11 s (wall)
DIIS Errors:  Max 5.05E-04 RMS 1.01E-04

Current DIIS subspace size = 6
REM_GRID_RESTART_DIIS = 0

    6    -152.7320752104      1.01E-04  00000
Finding J and K together
 Job number = 22, Threshold = 1.00E-11
Integral type ranges set in mkLRange.C for JobNum: 22  <1-6|1-6>
 MakeJK  time:  CPU       0.11 s  wall       0.11 s
Fock build time:  0.11 s (CPU) 0.11 s (wall)
DIIS Errors:  Max 2.15E-04 RMS 3.59E-05

Current DIIS subspace size = 7
REM_GRID_RESTART_DIIS = 0

    7    -152.7320774627      3.59E-05  00000
Finding J and K together
 Job number = 22, Threshold = 1.00E-11
Integral type ranges set in mkLRange.C for JobNum: 22  <1-6|1-6>
 MakeJK  time:  CPU       0.11 s  wall       0.11 s
Fock build time:  0.11 s (CPU) 0.11 s (wall)
DIIS Errors:  Max 6.49E-05 RMS 1.24E-05

Current DIIS subspace size = 8
REM_GRID_RESTART_DIIS = 0

    8    -152.7320776491      1.24E-05  00000
Finding J and K together
 Job number = 22, Threshold = 1.00E-11
Integral type ranges set in mkLRange.C for JobNum: 22  <1-6|1-6>
 MakeJK  time:  CPU       0.10 s  wall       0.10 s
Fock build time:  0.10 s (CPU) 0.10 s (wall)
DIIS Errors:  Max 1.65E-05 RMS 3.36E-06

Current DIIS subspace size = 9
REM_GRID_RESTART_DIIS = 0

    9    -152.7320776841      3.36E-06  00000
Finding J and K together
 Job number = 22, Threshold = 1.00E-11
Integral type ranges set in mkLRange.C for JobNum: 22  <1-6|1-6>
 MakeJK  time:  CPU       0.12 s  wall       0.12 s
Fock build time:  0.12 s (CPU) 0.12 s (wall)
DIIS Errors:  Max 3.11E-06 RMS 6.72E-07

Current DIIS subspace size = 10
REM_GRID_RESTART_DIIS = 0

   10    -152.7320776878      6.72E-07  00000
Finding J and K together
 Job number = 22, Threshold = 1.00E-11
Integral type ranges set in mkLRange.C for JobNum: 22  <1-6|1-6>
 MakeJK  time:  CPU       0.11 s  wall       0.11 s
Fock build time:  0.11 s (CPU) 0.11 s (wall)
DIIS Errors:  Max 5.79E-07 RMS 1.16E-07

Current DIIS subspace size = 11
REM_GRID_RESTART_DIIS = 0

   11    -152.7320776879      1.16E-07  00000
Finding J and K together
 Job number = 22, Threshold = 1.00E-11
Integral type ranges set in mkLRange.C for JobNum: 22  <1-6|1-6>
 MakeJK  time:  CPU       0.15 s  wall       0.15 s
Fock build time:  0.15 s (CPU) 0.15 s (wall)
DIIS Errors:  Max 8.33E-08 RMS 1.86E-08

Current DIIS subspace size = 12
REM_GRID_RESTART_DIIS = 0

   12    -152.7320776879      1.86E-08  00000
Finding J and K together
 Job number = 22, Threshold = 1.00E-11
Integral type ranges set in mkLRange.C for JobNum: 22  <1-6|1-6>
 MakeJK  time:  CPU       0.14 s  wall       0.14 s
Fock build time:  0.14 s (CPU) 0.14 s (wall)
DIIS Errors:  Max 1.78E-08 RMS 3.60E-09

Current DIIS subspace size = 13
REM_GRID_RESTART_DIIS = 0

   13    -152.7320776879      3.60E-09  00000 Convergence criterion met
 ---------------------------------------
 SCF time:  CPU 1.70 s  wall 1.73 s
 SCF   energy in the final basis set = -152.73207769
 Total energy in the final basis set = -152.73207769
drvman_main.C: 73: calling DrvMan  Calculating analytic gradient of the SCF energy
drvman.C : 218: Calculating analytic gradient of the SCF energy
drvman.C: 244: calling SCF_Grad for normal SCF gradient
 Job number = 111, Threshold = 1.00E-11
Integral type ranges set in mkLRange.C for JobNum: 11  <1-6|7-7>
Finding J and K together
 ML is being used
 Job number = 122, Threshold = 1.00E-11
Integral type ranges set in mkLRange.C for JobNum: 22  <1-6|1-6>
 MakeJK  time:  CPU       0.42 s  wall       0.45 s
 Gradient of SCF Energy
            1           2           3           4           5           6
    1  -0.0414494   0.1585168   0.0172681  -0.0267712  -0.0001281   0.0222676
    2   0.0808880  -0.1178860   0.0228954  -0.0342472  -0.0167211   0.0991008
    3  -0.0993250   0.1854579   0.0140168   0.0047433  -0.0009593  -0.0084356
            7           8           9          10
    1   0.0285690  -0.0926962  -0.0507100  -0.0148665
    2  -0.0960981   0.0309424   0.0176524   0.0134733
    3   0.0728535  -0.1078568  -0.0451926  -0.0153024
 Max gradient component =       1.855E-01
 RMS gradient           =       7.006E-02
drvman.C: 248: out of SCF_Grad for normal SCF gradient
 Gradient time:  CPU 0.43 s  wall 0.46 s
 ------------------------------------------------------------------------------
                     drvman        : Timing summary (seconds)
 ------------------------------------------------------------------------------
     job step          cpu (% of tot)      sys (% of tot)     wall (% of tot)
 ------------------------------------------------------------------------------
 ------------------------------------------------------------------------------
   Grand Totals     0.4320E+00          0.3000E-05          0.4638E+00
 ------------------------------------------------------------------------------
drvman_main.C: 77: out of DrvMan  Time for this dynamics step: 2.2 s (CPU) 2.2 s (wall)

TIME STEP #4 (t = 60.000 a.u. = 1.45133 fs)
--------------------------------------
 Instantaneous Temperature = 1176.5 K
 ----------------------------------------------------------------
             Standard Nuclear Orientation (Angstroms)
    I     Atom           X                Y                Z
 ----------------------------------------------------------------
    1      C       4.0576507698     2.1371627207     0.8186714617
    2      C       3.2678742427     1.0831494242     0.7416296510
    3      H       4.1181644820     3.1890823964     0.4931882951
    4      H       4.7597552910     1.8356062186     1.6114652179
    5      C       2.0662289958     1.7312678080    -0.5351624992
    6      C       0.9272275511     1.1797997256    -0.9531876516
    7      H       0.8652342844     0.0562775740    -0.3553380320
    8      H       0.0519731980     1.4882242215    -1.9329338335
    9      H       2.6213995310     0.2040523364     0.6887206234
   10      H       2.2737101821     2.7292416140    -0.9919688724
 ----------------------------------------------------------------
 Nuclear Repulsion Energy =    98.2520877415 hartrees
 There are       15 alpha and       15 beta electrons

                       Distance Matrix (Angstroms)
             C (  1)   C (  2)   H (  3)   H (  4)   C (  5)   C (  6)
   C (  2)  1.319328
   H (  3)  1.102786  2.284660
   H (  4)  1.101094  1.883750  1.869246
   C (  5)  2.442003  1.869280  2.719038  3.445864
   C (  6)  3.722308  2.891431  4.038725  4.657875  1.332736
   H (  7)  3.987468  2.833811  4.595217  4.711859  2.068893  1.274194
   H (  8)  4.902847  4.202308  5.031193  5.903105  2.463749  1.349481
   H (  9)  2.411767  1.092493  3.344988  2.843588  2.034328  2.553070
   H ( 10)  2.609870  2.589082  2.412293  3.709026  1.116992  2.053117
             H (  7)   H (  8)   H (  9)
   H (  8)  2.280498
   H (  9)  2.048417  3.888974
   H ( 10)  3.087692  2.713237  3.053225

 Applying Cartesian multipole field
    Component          Value
    ---------          -----
     (2,0,0)        1.00000E-11
     (0,2,0)        2.00000E-11
     (0,0,2)       -3.00000E-11
 Nucleus-field energy     =     0.0000000124 hartrees
 ENuRep (before)= 98.2520877415
 ENucField = 0.0000000124
 ENuRep (after) = 98.2520877538
 Job number = 2, Threshold = 1.00E-11
Integral type ranges set in mkLRange.C for JobNum: 2  <1-6|1-6>
Symmetry turned off temporarily
Symmetry turned back on
 Job number = 11, Threshold = 1.00E-11
Integral type ranges set in mkLRange.C for JobNum: 11  <1-6|7-7>
 Smallest overlap matrix eigenvalue = 1.85E-01
 Multipole matrices computed through 2nd order
 Guess from superposition of atomic densities
 Warning:  Energy on first SCF cycle will be non-variational
 SAD guess density has 30.000000 electrons
 SCF convergence criterion is 10**(-8)
 A restricted Hartree-Fock SCF calculation will be
 performed using Pulay DIIS extrapolation
 SCF converges when DIIS error is below 1.0E-08
Finding J and K together
 Job number = 22, Threshold = 1.00E-11
Integral type ranges set in mkLRange.C for JobNum: 22  <1-6|1-6>
 MakeJK  time:  CPU       0.13 s  wall       0.13 s
Fock build time:  0.13 s (CPU) 0.13 s (wall)
DIIS Errors:  Max 1.14E+00 RMS 1.89E-01

Current DIIS subspace size = 1
REM_GRID_RESTART_DIIS = 0

 ---------------------------------------
  Cycle       Energy         DIIS Error
 ---------------------------------------
    1    -151.9502196506      1.89E-01  00000
Finding J and K together
 Job number = 22, Threshold = 1.00E-11
Integral type ranges set in mkLRange.C for JobNum: 22  <1-6|1-6>
 MakeJK  time:  CPU       0.16 s  wall       0.17 s
Fock build time:  0.16 s (CPU) 0.17 s (wall)
DIIS Errors:  Max 6.28E-02 RMS 1.44E-02

Current DIIS subspace size = 2
REM_GRID_RESTART_DIIS = 0

    2    -152.7290141823      1.44E-02  00000
Finding J and K together
 Job number = 22, Threshold = 1.00E-11
Integral type ranges set in mkLRange.C for JobNum: 22  <1-6|1-6>
 MakeJK  time:  CPU       0.16 s  wall       0.17 s
Fock build time:  0.16 s (CPU) 0.17 s (wall)
DIIS Errors:  Max 2.97E-02 RMS 5.23E-03

Current DIIS subspace size = 3
REM_GRID_RESTART_DIIS = 0

    3    -152.7618586365      5.23E-03  00000
Finding J and K together
 Job number = 22, Threshold = 1.00E-11
Integral type ranges set in mkLRange.C for JobNum: 22  <1-6|1-6>
 MakeJK  time:  CPU       0.16 s  wall       0.17 s
Fock build time:  0.16 s (CPU) 0.17 s (wall)
DIIS Errors:  Max 1.04E-02 RMS 2.45E-03

Current DIIS subspace size = 4
REM_GRID_RESTART_DIIS = 0

    4    -152.7651755648      2.45E-03  00000
Finding J and K together
 Job number = 22, Threshold = 1.00E-11
Integral type ranges set in mkLRange.C for JobNum: 22  <1-6|1-6>
 MakeJK  time:  CPU       0.16 s  wall       0.20 s
Fock build time:  0.16 s (CPU) 0.20 s (wall)
DIIS Errors:  Max 2.03E-03 RMS 3.72E-04

Current DIIS subspace size = 5
REM_GRID_RESTART_DIIS = 0

    5    -152.7659375081      3.72E-04  00000
Finding J and K together
 Job number = 22, Threshold = 1.00E-11
Integral type ranges set in mkLRange.C for JobNum: 22  <1-6|1-6>
 MakeJK  time:  CPU       0.16 s  wall       0.18 s
Fock build time:  0.16 s (CPU) 0.18 s (wall)
DIIS Errors:  Max 4.37E-04 RMS 8.90E-05

Current DIIS subspace size = 6
REM_GRID_RESTART_DIIS = 0

    6    -152.7659540021      8.90E-05  00000
Finding J and K together
 Job number = 22, Threshold = 1.00E-11
Integral type ranges set in mkLRange.C for JobNum: 22  <1-6|1-6>
 MakeJK  time:  CPU       0.16 s  wall       0.18 s
Fock build time:  0.16 s (CPU) 0.18 s (wall)
DIIS Errors:  Max 1.57E-04 RMS 2.75E-05

Current DIIS subspace size = 7
REM_GRID_RESTART_DIIS = 0

    7    -152.7659557382      2.75E-05  00000
Finding J and K together
 Job number = 22, Threshold = 1.00E-11
Integral type ranges set in mkLRange.C for JobNum: 22  <1-6|1-6>
 MakeJK  time:  CPU       0.16 s  wall       0.17 s
Fock build time:  0.16 s (CPU) 0.17 s (wall)
DIIS Errors:  Max 5.86E-05 RMS 1.05E-05

Current DIIS subspace size = 8
REM_GRID_RESTART_DIIS = 0

    8    -152.7659558493      1.05E-05  00000
Finding J and K together
 Job number = 22, Threshold = 1.00E-11
Integral type ranges set in mkLRange.C for JobNum: 22  <1-6|1-6>
 MakeJK  time:  CPU       0.16 s  wall       0.18 s
Fock build time:  0.16 s (CPU) 0.18 s (wall)
DIIS Errors:  Max 1.24E-05 RMS 2.77E-06

Current DIIS subspace size = 9
REM_GRID_RESTART_DIIS = 0

    9    -152.7659558716      2.77E-06  00000
Finding J and K together
 Job number = 22, Threshold = 1.00E-11
Integral type ranges set in mkLRange.C for JobNum: 22  <1-6|1-6>
 MakeJK  time:  CPU       0.17 s  wall       0.18 s
Fock build time:  0.17 s (CPU) 0.18 s (wall)
DIIS Errors:  Max 2.57E-06 RMS 5.25E-07

Current DIIS subspace size = 10
REM_GRID_RESTART_DIIS = 0

   10    -152.7659558741      5.25E-07  00000
Finding J and K together
 Job number = 22, Threshold = 1.00E-11
Integral type ranges set in mkLRange.C for JobNum: 22  <1-6|1-6>
 MakeJK  time:  CPU       0.17 s  wall       0.17 s
Fock build time:  0.17 s (CPU) 0.17 s (wall)
DIIS Errors:  Max 4.16E-07 RMS 9.12E-08

Current DIIS subspace size = 11
REM_GRID_RESTART_DIIS = 0

   11    -152.7659558742      9.12E-08  00000
Finding J and K together
 Job number = 22, Threshold = 1.00E-11
Integral type ranges set in mkLRange.C for JobNum: 22  <1-6|1-6>
 MakeJK  time:  CPU       0.17 s  wall       0.21 s
Fock build time:  0.17 s (CPU) 0.21 s (wall)
DIIS Errors:  Max 8.00E-08 RMS 1.63E-08

Current DIIS subspace size = 12
REM_GRID_RESTART_DIIS = 0

   12    -152.7659558742      1.63E-08  00000
Finding J and K together
 Job number = 22, Threshold = 1.00E-11
Integral type ranges set in mkLRange.C for JobNum: 22  <1-6|1-6>
 MakeJK  time:  CPU       0.12 s  wall       0.12 s
Fock build time:  0.12 s (CPU) 0.12 s (wall)
DIIS Errors:  Max 1.92E-08 RMS 3.47E-09

Current DIIS subspace size = 13
REM_GRID_RESTART_DIIS = 0

   13    -152.7659558742      3.47E-09  00000 Convergence criterion met
 ---------------------------------------
 SCF time:  CPU 2.10 s  wall 2.25 s
 SCF   energy in the final basis set = -152.76595587
 Total energy in the final basis set = -152.76595587
drvman_main.C: 73: calling DrvMan  Calculating analytic gradient of the SCF energy
drvman.C : 218: Calculating analytic gradient of the SCF energy
drvman.C: 244: calling SCF_Grad for normal SCF gradient
 Job number = 111, Threshold = 1.00E-11
Integral type ranges set in mkLRange.C for JobNum: 11  <1-6|7-7>
Finding J and K together
 ML is being used
 Job number = 122, Threshold = 1.00E-11
Integral type ranges set in mkLRange.C for JobNum: 22  <1-6|1-6>
 MakeJK  time:  CPU       0.34 s  wall       0.34 s
 Gradient of SCF Energy
            1           2           3           4           5           6
    1  -0.0449190   0.1568372   0.0165091  -0.0217991  -0.0079725   0.0257028
    2   0.0794242  -0.1211897   0.0260208  -0.0357441  -0.0175001   0.0913309
    3  -0.0999254   0.1859030   0.0110733   0.0090690  -0.0054713  -0.0013223
            7           8           9          10
    1   0.0254074  -0.0889228  -0.0483731  -0.0124700
    2  -0.0857119   0.0269700   0.0184842   0.0179158
    3   0.0636533  -0.1020956  -0.0442600  -0.0166240
 Max gradient component =       1.859E-01
 RMS gradient           =       6.855E-02
drvman.C: 248: out of SCF_Grad for normal SCF gradient
 Gradient time:  CPU 0.35 s  wall 0.36 s
 ------------------------------------------------------------------------------
                     drvman        : Timing summary (seconds)
 ------------------------------------------------------------------------------
     job step          cpu (% of tot)      sys (% of tot)     wall (% of tot)
 ------------------------------------------------------------------------------
 ------------------------------------------------------------------------------
   Grand Totals     0.3520E+00          0.1000E-05          0.3559E+00
 ------------------------------------------------------------------------------
drvman_main.C: 77: out of DrvMan  Time for this dynamics step: 2.5 s (CPU) 2.6 s (wall)

TIME STEP #5 (t = 80.000 a.u. = 1.93511 fs)
--------------------------------------
 Instantaneous Temperature = 1885.4 K
 ----------------------------------------------------------------
             Standard Nuclear Orientation (Angstroms)
    I     Atom           X                Y                Z
 ----------------------------------------------------------------
    1      C       4.0572470296     2.1369860039     0.8197496102
    2      C       3.2605806215     1.0894350794     0.7341250088
    3      H       4.1144488545     3.1850031457     0.4724499246
    4      H       4.7701903390     1.8389532543     1.6122259348
    5      C       2.0647379888     1.7330327061    -0.5360834479
    6      C       0.9316258360     1.1715142551    -0.9471698522
    7      H       0.8491748793     0.0963191681    -0.3964683245
    8      H       0.0869906859     1.4614985193    -1.8849042479
    9      H       2.6474920129     0.1918443257     0.7165847698
   10      H       2.2789746203     2.7337671802    -0.9909229054
 ----------------------------------------------------------------
 Nuclear Repulsion Energy =    98.6282577197 hartrees
 There are       15 alpha and       15 beta electrons

                       Distance Matrix (Angstroms)
             C (  1)   C (  2)   H (  3)   H (  4)   C (  5)   C (  6)
   C (  2)  1.318852
   H (  3)  1.105545  2.277931
   H (  4)  1.106856  1.900463  1.881738
   C (  5)  2.443676  1.859486  2.706783  3.456288
   C (  6)  3.718017  2.873590  4.024900  4.661605  1.329751
   H (  7)  3.991896  2.842428  4.577882  4.737720  2.043506  1.210832
   H (  8)  4.851224  4.131515  4.974737  5.857026  2.409260  1.294931
   H (  9)  2.404502  1.087131  3.342239  2.832135  2.069793  2.583027
   H ( 10)  2.607093  2.577435  2.390406  3.712577  1.119931  2.063467
             H (  7)   H (  8)   H (  9)
   H (  8)  2.158722
   H (  9)  2.117063  3.864704
   H ( 10)  3.058404  2.687501  3.084276

 Applying Cartesian multipole field
    Component          Value
    ---------          -----
     (2,0,0)        1.00000E-11
     (0,2,0)        2.00000E-11
     (0,0,2)       -3.00000E-11
 Nucleus-field energy     =     0.0000000124 hartrees
 ENuRep (before)= 98.6282577197
 ENucField = 0.0000000124
 ENuRep (after) = 98.6282577321
 Job number = 2, Threshold = 1.00E-11
Integral type ranges set in mkLRange.C for JobNum: 2  <1-6|1-6>
Symmetry turned off temporarily
Symmetry turned back on
 Job number = 11, Threshold = 1.00E-11
Integral type ranges set in mkLRange.C for JobNum: 11  <1-6|7-7>
 Smallest overlap matrix eigenvalue = 1.86E-01
 Multipole matrices computed through 2nd order
 Guess from superposition of atomic densities
 Warning:  Energy on first SCF cycle will be non-variational
 SAD guess density has 30.000000 electrons
 SCF convergence criterion is 10**(-8)
 A restricted Hartree-Fock SCF calculation will be
 performed using Pulay DIIS extrapolation
 SCF converges when DIIS error is below 1.0E-08
Finding J and K together
 Job number = 22, Threshold = 1.00E-11
Integral type ranges set in mkLRange.C for JobNum: 22  <1-6|1-6>
 MakeJK  time:  CPU       0.11 s  wall       0.11 s
Fock build time:  0.11 s (CPU) 0.11 s (wall)
DIIS Errors:  Max 1.14E+00 RMS 1.91E-01

Current DIIS subspace size = 1
REM_GRID_RESTART_DIIS = 0

 ---------------------------------------
  Cycle       Energy         DIIS Error
 ---------------------------------------
    1    -152.0179234756      1.91E-01  00000
Finding J and K together
 Job number = 22, Threshold = 1.00E-11
Integral type ranges set in mkLRange.C for JobNum: 22  <1-6|1-6>
 MakeJK  time:  CPU       0.14 s  wall       0.15 s
Fock build time:  0.14 s (CPU) 0.15 s (wall)
DIIS Errors:  Max 6.16E-02 RMS 1.43E-02

Current DIIS subspace size = 2
REM_GRID_RESTART_DIIS = 0

    2    -152.7709348359      1.43E-02  00000
Finding J and K together
 Job number = 22, Threshold = 1.00E-11
Integral type ranges set in mkLRange.C for JobNum: 22  <1-6|1-6>
 MakeJK  time:  CPU       0.10 s  wall       0.10 s
Fock build time:  0.10 s (CPU) 0.10 s (wall)
DIIS Errors:  Max 2.84E-02 RMS 4.89E-03

Current DIIS subspace size = 3
REM_GRID_RESTART_DIIS = 0

    3    -152.8027665527      4.89E-03  00000
Finding J and K together
 Job number = 22, Threshold = 1.00E-11
Integral type ranges set in mkLRange.C for JobNum: 22  <1-6|1-6>
 MakeJK  time:  CPU       0.10 s  wall       0.10 s
Fock build time:  0.10 s (CPU) 0.10 s (wall)
DIIS Errors:  Max 9.74E-03 RMS 2.28E-03

Current DIIS subspace size = 4
REM_GRID_RESTART_DIIS = 0

    4    -152.8057226077      2.28E-03  00000
Finding J and K together
 Job number = 22, Threshold = 1.00E-11
Integral type ranges set in mkLRange.C for JobNum: 22  <1-6|1-6>
 MakeJK  time:  CPU       0.16 s  wall       0.15 s
Fock build time:  0.16 s (CPU) 0.15 s (wall)
DIIS Errors:  Max 1.73E-03 RMS 3.41E-04

Current DIIS subspace size = 5
REM_GRID_RESTART_DIIS = 0

    5    -152.8063596359      3.41E-04  00000
Finding J and K together
 Job number = 22, Threshold = 1.00E-11
Integral type ranges set in mkLRange.C for JobNum: 22  <1-6|1-6>
 MakeJK  time:  CPU       0.16 s  wall       0.16 s
Fock build time:  0.16 s (CPU) 0.16 s (wall)
DIIS Errors:  Max 3.66E-04 RMS 7.63E-05

Current DIIS subspace size = 6
REM_GRID_RESTART_DIIS = 0

    6    -152.8063730777      7.63E-05  00000
Finding J and K together
 Job number = 22, Threshold = 1.00E-11
Integral type ranges set in mkLRange.C for JobNum: 22  <1-6|1-6>
 MakeJK  time:  CPU       0.16 s  wall       0.17 s
Fock build time:  0.16 s (CPU) 0.17 s (wall)
DIIS Errors:  Max 1.10E-04 RMS 1.98E-05

Current DIIS subspace size = 7
REM_GRID_RESTART_DIIS = 0

    7    -152.8063743407      1.98E-05  00000
Finding J and K together
 Job number = 22, Threshold = 1.00E-11
Integral type ranges set in mkLRange.C for JobNum: 22  <1-6|1-6>
 MakeJK  time:  CPU       0.16 s  wall       0.16 s
Fock build time:  0.16 s (CPU) 0.17 s (wall)
DIIS Errors:  Max 4.99E-05 RMS 8.48E-06

Current DIIS subspace size = 8
REM_GRID_RESTART_DIIS = 0

    8    -152.8063744013      8.48E-06  00000
Finding J and K together
 Job number = 22, Threshold = 1.00E-11
Integral type ranges set in mkLRange.C for JobNum: 22  <1-6|1-6>
 MakeJK  time:  CPU       0.16 s  wall       0.17 s
Fock build time:  0.16 s (CPU) 0.17 s (wall)
DIIS Errors:  Max 8.32E-06 RMS 2.12E-06

Current DIIS subspace size = 9
REM_GRID_RESTART_DIIS = 0

    9    -152.8063744136      2.12E-06  00000
Finding J and K together
 Job number = 22, Threshold = 1.00E-11
Integral type ranges set in mkLRange.C for JobNum: 22  <1-6|1-6>
 MakeJK  time:  CPU       0.16 s  wall       0.17 s
Fock build time:  0.16 s (CPU) 0.17 s (wall)
DIIS Errors:  Max 2.04E-06 RMS 3.91E-07

Current DIIS subspace size = 10
REM_GRID_RESTART_DIIS = 0

   10    -152.8063744150      3.91E-07  00000
Finding J and K together
 Job number = 22, Threshold = 1.00E-11
Integral type ranges set in mkLRange.C for JobNum: 22  <1-6|1-6>
 MakeJK  time:  CPU       0.17 s  wall       0.17 s
Fock build time:  0.17 s (CPU) 0.17 s (wall)
DIIS Errors:  Max 3.00E-07 RMS 6.67E-08

Current DIIS subspace size = 11
REM_GRID_RESTART_DIIS = 0

   11    -152.8063744151      6.67E-08  00000
Finding J and K together
 Job number = 22, Threshold = 1.00E-11
Integral type ranges set in mkLRange.C for JobNum: 22  <1-6|1-6>
 MakeJK  time:  CPU       0.16 s  wall       0.16 s
Fock build time:  0.16 s (CPU) 0.17 s (wall)
DIIS Errors:  Max 6.45E-08 RMS 1.40E-08

Current DIIS subspace size = 12
REM_GRID_RESTART_DIIS = 0

   12    -152.8063744151      1.40E-08  00000
Finding J and K together
 Job number = 22, Threshold = 1.00E-11
Integral type ranges set in mkLRange.C for JobNum: 22  <1-6|1-6>
 MakeJK  time:  CPU       0.16 s  wall       0.17 s
Fock build time:  0.16 s (CPU) 0.17 s (wall)
DIIS Errors:  Max 2.07E-08 RMS 3.88E-09

Current DIIS subspace size = 13
REM_GRID_RESTART_DIIS = 0

   13    -152.8063744151      3.88E-09  00000 Convergence criterion met
 ---------------------------------------
 SCF time:  CPU 1.92 s  wall 1.96 s
 SCF   energy in the final basis set = -152.80637442
 Total energy in the final basis set = -152.80637442
drvman_main.C: 73: calling DrvMan  Calculating analytic gradient of the SCF energy
drvman.C : 218: Calculating analytic gradient of the SCF energy
drvman.C: 244: calling SCF_Grad for normal SCF gradient
 Job number = 111, Threshold = 1.00E-11
Integral type ranges set in mkLRange.C for JobNum: 11  <1-6|7-7>
Finding J and K together
 ML is being used
 Job number = 122, Threshold = 1.00E-11
Integral type ranges set in mkLRange.C for JobNum: 22  <1-6|1-6>
 MakeJK  time:  CPU       0.42 s  wall       0.43 s
 Gradient of SCF Energy
            1           2           3           4           5           6
    1  -0.0473031   0.1542821   0.0155221  -0.0167684  -0.0150737   0.0240259
    2   0.0772036  -0.1237654   0.0280662  -0.0359758  -0.0151598   0.0753157
    3  -0.0987295   0.1852846   0.0081887   0.0126221  -0.0113244   0.0060287
            7           8           9          10
    1   0.0221708  -0.0809553  -0.0457636  -0.0101367
    2  -0.0661776   0.0210094   0.0187679   0.0207159
    3   0.0491953  -0.0913417  -0.0428843  -0.0170395
 Max gradient component =       1.853E-01
 RMS gradient           =       6.553E-02
drvman.C: 248: out of SCF_Grad for normal SCF gradient
 Gradient time:  CPU 0.44 s  wall 0.45 s
 ------------------------------------------------------------------------------
                     drvman        : Timing summary (seconds)
 ------------------------------------------------------------------------------
     job step          cpu (% of tot)      sys (% of tot)     wall (% of tot)
 ------------------------------------------------------------------------------
 ------------------------------------------------------------------------------
   Grand Totals     0.4440E+00          0.4000E-05          0.4520E+00
 ------------------------------------------------------------------------------
drvman_main.C: 77: out of DrvMan  Time for this dynamics step: 2.4 s (CPU) 2.5 s (wall)

TIME STEP #6 (t = 100.000 a.u. = 2.41888 fs)
--------------------------------------
 Instantaneous Temperature = 2728.2 K
 ----------------------------------------------------------------
             Standard Nuclear Orientation (Angstroms)
    I     Atom           X                Y                Z
 ----------------------------------------------------------------
    1      C       4.0573010192     2.1360622240     0.8217831182
    2      C       3.2517940848     1.0969183545     0.7248274540
    3      H       4.1089448317     3.1776902126     0.4507680879
    4      H       4.7825573848     1.8464452822     1.6115323768
    5      C       2.0633928425     1.7349442988    -0.5368948155
    6      C       0.9357916339     1.1624999901    -0.9412103898
    7      H       0.8305610386     0.1439854984    -0.4432667140
    8      H       0.1313355382     1.4323521946    -1.8263506168
    9      H       2.6788572033     0.1774739467     0.7493898790
   10      H       2.2854069745     2.7359059431    -0.9879137080
 ----------------------------------------------------------------
 Nuclear Repulsion Energy =    99.1196055451 hartrees
 There are       15 alpha and       15 beta electrons

                       Distance Matrix (Angstroms)
             C (  1)   C (  2)   H (  3)   H (  4)   C (  5)   C (  6)
   C (  2)  1.318356
   H (  3)  1.106936  2.267031
   H (  4)  1.110666  1.921268  1.890328
   C (  5)  2.445930  1.846975  2.690962  3.467280
   C (  6)  3.714807  2.853743  4.008428  4.667107  1.327648
   H (  7)  3.997571  2.852174  4.555268  4.768526  2.014892  1.138593
   H (  8)  4.787591  4.044538  4.904371  5.798653  2.342457  1.226150
   H (  9)  2.396125  1.083623  3.337008  2.820339  2.111644  2.620436
   H ( 10)  2.602772  2.560013  2.364375  3.712684  1.120104  2.073463
             H (  7)   H (  8)   H (  9)
   H (  8)  2.015372
   H (  9)  2.199943  3.833931
   H ( 10)  3.021799  2.653724  3.117467

 Applying Cartesian multipole field
    Component          Value
    ---------          -----
     (2,0,0)        1.00000E-11
     (0,2,0)        2.00000E-11
     (0,0,2)       -3.00000E-11
 Nucleus-field energy     =     0.0000000124 hartrees
 ENuRep (before)= 99.1196055451
 ENucField = 0.0000000124
 ENuRep (after) = 99.1196055575
 Job number = 2, Threshold = 1.00E-11
Integral type ranges set in mkLRange.C for JobNum: 2  <1-6|1-6>
Symmetry turned off temporarily
Symmetry turned back on
 Job number = 11, Threshold = 1.00E-11
Integral type ranges set in mkLRange.C for JobNum: 11  <1-6|7-7>
 Smallest overlap matrix eigenvalue = 1.86E-01
 Multipole matrices computed through 2nd order
 Guess from superposition of atomic densities
 Warning:  Energy on first SCF cycle will be non-variational
 SAD guess density has 30.000000 electrons
 SCF convergence criterion is 10**(-8)
 A restricted Hartree-Fock SCF calculation will be
 performed using Pulay DIIS extrapolation
 SCF converges when DIIS error is below 1.0E-08
Finding J and K together
 Job number = 22, Threshold = 1.00E-11
Integral type ranges set in mkLRange.C for JobNum: 22  <1-6|1-6>
 MakeJK  time:  CPU       0.13 s  wall       0.13 s
Fock build time:  0.13 s (CPU) 0.13 s (wall)
DIIS Errors:  Max 1.14E+00 RMS 1.94E-01

Current DIIS subspace size = 1
REM_GRID_RESTART_DIIS = 0

 ---------------------------------------
  Cycle       Energy         DIIS Error
 ---------------------------------------
    1    -152.1129493857      1.94E-01  00000
Finding J and K together
 Job number = 22, Threshold = 1.00E-11
Integral type ranges set in mkLRange.C for JobNum: 22  <1-6|1-6>
 MakeJK  time:  CPU       0.16 s  wall       0.17 s
Fock build time:  0.16 s (CPU) 0.17 s (wall)
DIIS Errors:  Max 6.10E-02 RMS 1.41E-02

Current DIIS subspace size = 2
REM_GRID_RESTART_DIIS = 0

    2    -152.8140236801      1.41E-02  00000
Finding J and K together
 Job number = 22, Threshold = 1.00E-11
Integral type ranges set in mkLRange.C for JobNum: 22  <1-6|1-6>
 MakeJK  time:  CPU       0.17 s  wall       0.18 s
Fock build time:  0.17 s (CPU) 0.18 s (wall)
DIIS Errors:  Max 2.70E-02 RMS 4.49E-03

Current DIIS subspace size = 3
REM_GRID_RESTART_DIIS = 0

    3    -152.8445598978      4.49E-03  00000
Finding J and K together
 Job number = 22, Threshold = 1.00E-11
Integral type ranges set in mkLRange.C for JobNum: 22  <1-6|1-6>
 MakeJK  time:  CPU       0.16 s  wall       0.17 s
Fock build time:  0.16 s (CPU) 0.17 s (wall)
DIIS Errors:  Max 8.69E-03 RMS 2.03E-03

Current DIIS subspace size = 4
REM_GRID_RESTART_DIIS = 0

    4    -152.8471478368      2.03E-03  00000
Finding J and K together
 Job number = 22, Threshold = 1.00E-11
Integral type ranges set in mkLRange.C for JobNum: 22  <1-6|1-6>
 MakeJK  time:  CPU       0.15 s  wall       0.16 s
Fock build time:  0.15 s (CPU) 0.16 s (wall)
DIIS Errors:  Max 1.40E-03 RMS 3.09E-04

Current DIIS subspace size = 5
REM_GRID_RESTART_DIIS = 0

    5    -152.8476364751      3.09E-04  00000
Finding J and K together
 Job number = 22, Threshold = 1.00E-11
Integral type ranges set in mkLRange.C for JobNum: 22  <1-6|1-6>
 MakeJK  time:  CPU       0.14 s  wall       0.14 s
Fock build time:  0.14 s (CPU) 0.14 s (wall)
DIIS Errors:  Max 3.13E-04 RMS 6.45E-05

Current DIIS subspace size = 6
REM_GRID_RESTART_DIIS = 0

    6    -152.8476471929      6.45E-05  00000
Finding J and K together
 Job number = 22, Threshold = 1.00E-11
Integral type ranges set in mkLRange.C for JobNum: 22  <1-6|1-6>
 MakeJK  time:  CPU       0.11 s  wall       0.11 s
Fock build time:  0.11 s (CPU) 0.11 s (wall)
DIIS Errors:  Max 7.58E-05 RMS 1.44E-05

Current DIIS subspace size = 7
REM_GRID_RESTART_DIIS = 0

    7    -152.8476480925      1.44E-05  00000
Finding J and K together
 Job number = 22, Threshold = 1.00E-11
Integral type ranges set in mkLRange.C for JobNum: 22  <1-6|1-6>
 MakeJK  time:  CPU       0.10 s  wall       0.11 s
Fock build time:  0.10 s (CPU) 0.11 s (wall)
DIIS Errors:  Max 4.04E-05 RMS 6.84E-06

Current DIIS subspace size = 8
REM_GRID_RESTART_DIIS = 0

    8    -152.8476481277      6.84E-06  00000
Finding J and K together
 Job number = 22, Threshold = 1.00E-11
Integral type ranges set in mkLRange.C for JobNum: 22  <1-6|1-6>
 MakeJK  time:  CPU       0.16 s  wall       0.16 s
Fock build time:  0.16 s (CPU) 0.16 s (wall)
DIIS Errors:  Max 7.82E-06 RMS 1.55E-06

Current DIIS subspace size = 9
REM_GRID_RESTART_DIIS = 0

    9    -152.8476481343      1.55E-06  00000
Finding J and K together
 Job number = 22, Threshold = 1.00E-11
Integral type ranges set in mkLRange.C for JobNum: 22  <1-6|1-6>
 MakeJK  time:  CPU       0.11 s  wall       0.11 s
Fock build time:  0.11 s (CPU) 0.11 s (wall)
DIIS Errors:  Max 1.59E-06 RMS 3.00E-07

Current DIIS subspace size = 10
REM_GRID_RESTART_DIIS = 0

   10    -152.8476481350      3.00E-07  00000
Finding J and K together
 Job number = 22, Threshold = 1.00E-11
Integral type ranges set in mkLRange.C for JobNum: 22  <1-6|1-6>
 MakeJK  time:  CPU       0.12 s  wall       0.11 s
Fock build time:  0.12 s (CPU) 0.11 s (wall)
DIIS Errors:  Max 2.66E-07 RMS 5.33E-08

Current DIIS subspace size = 11
REM_GRID_RESTART_DIIS = 0

   11    -152.8476481351      5.33E-08  00000
Finding J and K together
 Job number = 22, Threshold = 1.00E-11
Integral type ranges set in mkLRange.C for JobNum: 22  <1-6|1-6>
 MakeJK  time:  CPU       0.12 s  wall       0.12 s
Fock build time:  0.12 s (CPU) 0.12 s (wall)
DIIS Errors:  Max 7.50E-08 RMS 1.18E-08

Current DIIS subspace size = 12
REM_GRID_RESTART_DIIS = 0

   12    -152.8476481351      1.18E-08  00000
Finding J and K together
 Job number = 22, Threshold = 1.00E-11
Integral type ranges set in mkLRange.C for JobNum: 22  <1-6|1-6>
 MakeJK  time:  CPU       0.11 s  wall       0.11 s
Fock build time:  0.11 s (CPU) 0.11 s (wall)
DIIS Errors:  Max 2.01E-08 RMS 2.92E-09

Current DIIS subspace size = 13
REM_GRID_RESTART_DIIS = 0

   13    -152.8476481351      2.92E-09  00000 Convergence criterion met
 ---------------------------------------
 SCF time:  CPU 1.77 s  wall 1.82 s
 SCF   energy in the final basis set = -152.84764814
 Total energy in the final basis set = -152.84764814
drvman_main.C: 73: calling DrvMan  Calculating analytic gradient of the SCF energy
drvman.C : 218: Calculating analytic gradient of the SCF energy
drvman.C: 244: calling SCF_Grad for normal SCF gradient
 Job number = 111, Threshold = 1.00E-11
Integral type ranges set in mkLRange.C for JobNum: 11  <1-6|7-7>
Finding J and K together
 ML is being used
 Job number = 122, Threshold = 1.00E-11
Integral type ranges set in mkLRange.C for JobNum: 22  <1-6|1-6>
[...]
    5      C       2.2457283920     1.0160483213    -0.4440961937
    6      C       1.4608087744     0.1353023052     0.0490508464
    7      H       1.1600320860    -0.6391794359     1.0688026436
    8      H       0.6989835082    -0.1227410209    -0.8795823354
    9      H       3.5789328633     1.8876121263     1.4280543350
   10      H       2.4254531463     1.6142083565    -1.3919383715
 ----------------------------------------------------------------
 Nuclear Repulsion Energy =   104.7879221768 hartrees
 There are       15 alpha and       15 beta electrons

                       Distance Matrix (Angstroms)
             C (  1)   C (  2)   H (  3)   H (  4)   C (  5)   C (  6)
   C (  2)  1.218894
   H (  3)  1.099669  1.928051
   H (  4)  1.045497  2.057000  1.797376
   C (  5)  2.380732  1.582062  2.363488  3.375556
   C (  6)  3.514410  2.494278  3.610999  4.436247  1.278674
   H (  7)  4.460000  3.296983  4.764696  5.285575  2.491461  1.315364
   H (  8)  4.279070  3.461888  4.082449  5.223633  1.969495  1.228545
   H (  9)  1.828074  1.058639  2.797191  2.281001  2.458049  3.075498
   H ( 10)  2.220419  2.030164  1.685319  3.203999  1.135122  2.279068
             H (  7)   H (  8)   H (  9)
   H (  8)  2.067723
   H (  9)  3.516364  4.202477
   H ( 10)  3.568514  2.502039  3.059023

 Applying Cartesian multipole field
    Component          Value
    ---------          -----
     (2,0,0)        1.00000E-11
     (0,2,0)        2.00000E-11
     (0,0,2)       -3.00000E-11
 Nucleus-field energy     =     0.0000000150 hartrees
 ENuRep (before)= 104.7879221768
 ENucField = 0.0000000150
 ENuRep (after) = 104.7879221917
 Job number = 2, Threshold = 1.00E-11
Integral type ranges set in mkLRange.C for JobNum: 2  <1-6|1-6>
Symmetry turned off temporarily
Symmetry turned back on
 Job number = 11, Threshold = 1.00E-11
Integral type ranges set in mkLRange.C for JobNum: 11  <1-6|7-7>
 Smallest overlap matrix eigenvalue = 1.35E-01
 Multipole matrices computed through 2nd order
 Extrapolating the Fock matrix using 12 points and a 6th-order polynomial
 Alpha Fock matrix extrapolation
 Skip SCF guess (diagonalize extrapolated Fock matrix instead)
 SCF convergence criterion is 10**(-8)
 A restricted Hartree-Fock SCF calculation will be
 performed using Pulay DIIS extrapolation
 SCF converges when DIIS error is below 1.0E-08
Extrapolated Fock matrix used in lieu of Fock build
Fock build time:  0.00 s (CPU) 0.00 s (wall)
DIIS Errors:  Max 1.88E-01 RMS 1.92E-02

Current DIIS subspace size = 1
REM_GRID_RESTART_DIIS = 0

 ---------------------------------------
  Cycle       Energy         DIIS Error
 ---------------------------------------
    1    -308.5015167881      1.92E-02  00000
Finding J and K together
 Job number = 22, Threshold = 1.00E-11
Integral type ranges set in mkLRange.C for JobNum: 22  <1-6|1-6>
 MakeJK  time:  CPU       0.16 s  wall       0.17 s
Fock build time:  0.16 s (CPU) 0.17 s (wall)
DIIS Errors:  Max 2.07E-01 RMS 1.64E-02

Current DIIS subspace size = 2
REM_GRID_RESTART_DIIS = 0

    2    -152.8477770642      1.64E-02  00000
Finding J and K together
 Job number = 22, Threshold = 1.00E-11
Integral type ranges set in mkLRange.C for JobNum: 22  <1-6|1-6>
 MakeJK  time:  CPU       0.18 s  wall       0.19 s
Fock build time:  0.18 s (CPU) 0.19 s (wall)
DIIS Errors:  Max 9.94E-02 RMS 8.04E-03

Current DIIS subspace size = 3
REM_GRID_RESTART_DIIS = 0

    3    -152.8518893050      8.04E-03  00000
Finding J and K together
 Job number = 22, Threshold = 1.00E-11
Integral type ranges set in mkLRange.C for JobNum: 22  <1-6|1-6>
 MakeJK  time:  CPU       0.16 s  wall       0.16 s
Fock build time:  0.16 s (CPU) 0.16 s (wall)
DIIS Errors:  Max 6.69E-03 RMS 6.47E-04

Current DIIS subspace size = 4
REM_GRID_RESTART_DIIS = 0

    4    -152.8534035586      6.47E-04  00000
Finding J and K together
 Job number = 22, Threshold = 1.00E-11
Integral type ranges set in mkLRange.C for JobNum: 22  <1-6|1-6>
 MakeJK  time:  CPU       0.19 s  wall       0.20 s
Fock build time:  0.19 s (CPU) 0.20 s (wall)
DIIS Errors:  Max 5.77E-04 RMS 6.99E-05

Current DIIS subspace size = 5
REM_GRID_RESTART_DIIS = 0

    5    -152.8534305727      6.99E-05  00000
Finding J and K together
 Job number = 22, Threshold = 1.00E-11
Integral type ranges set in mkLRange.C for JobNum: 22  <1-6|1-6>
 MakeJK  time:  CPU       0.14 s  wall       0.15 s
Fock build time:  0.14 s (CPU) 0.15 s (wall)
DIIS Errors:  Max 1.72E-04 RMS 2.31E-05

Current DIIS subspace size = 6
REM_GRID_RESTART_DIIS = 0

    6    -152.8534313704      2.31E-05  00000
Finding J and K together
 Job number = 22, Threshold = 1.00E-11
Integral type ranges set in mkLRange.C for JobNum: 22  <1-6|1-6>
 MakeJK  time:  CPU       0.13 s  wall       0.13 s
Fock build time:  0.13 s (CPU) 0.13 s (wall)
DIIS Errors:  Max 4.82E-05 RMS 6.47E-06

Current DIIS subspace size = 7
REM_GRID_RESTART_DIIS = 0

    7    -152.8534314263      6.47E-06  00000
Finding J and K together
 Job number = 22, Threshold = 1.00E-11
Integral type ranges set in mkLRange.C for JobNum: 22  <1-6|1-6>
 MakeJK  time:  CPU       0.15 s  wall       0.15 s
Fock build time:  0.15 s (CPU) 0.15 s (wall)
DIIS Errors:  Max 1.07E-05 RMS 1.77E-06

Current DIIS subspace size = 8
REM_GRID_RESTART_DIIS = 0

    8    -152.8534314332      1.77E-06  00000
Finding J and K together
 Job number = 22, Threshold = 1.00E-11
Integral type ranges set in mkLRange.C for JobNum: 22  <1-6|1-6>
 MakeJK  time:  CPU       0.13 s  wall       0.13 s
Fock build time:  0.13 s (CPU) 0.13 s (wall)
DIIS Errors:  Max 3.03E-06 RMS 4.87E-07

Current DIIS subspace size = 9
REM_GRID_RESTART_DIIS = 0

    9    -152.8534314338      4.87E-07  00000
Finding J and K together
 Job number = 22, Threshold = 1.00E-11
Integral type ranges set in mkLRange.C for JobNum: 22  <1-6|1-6>
 MakeJK  time:  CPU       0.14 s  wall       0.14 s
Fock build time:  0.14 s (CPU) 0.14 s (wall)
DIIS Errors:  Max 1.52E-06 RMS 1.55E-07

Current DIIS subspace size = 10
REM_GRID_RESTART_DIIS = 0

   10    -152.8534314338      1.55E-07  00000
Finding J and K together
 Job number = 22, Threshold = 1.00E-11
Integral type ranges set in mkLRange.C for JobNum: 22  <1-6|1-6>
 MakeJK  time:  CPU       0.15 s  wall       0.15 s
Fock build time:  0.15 s (CPU) 0.15 s (wall)
DIIS Errors:  Max 1.78E-07 RMS 2.55E-08

Current DIIS subspace size = 11
REM_GRID_RESTART_DIIS = 0

   11    -152.8534314338      2.55E-08  00000
Finding J and K together
 Job number = 22, Threshold = 1.00E-11
Integral type ranges set in mkLRange.C for JobNum: 22  <1-6|1-6>
 MakeJK  time:  CPU       0.17 s  wall       0.17 s
Fock build time:  0.17 s (CPU) 0.17 s (wall)
DIIS Errors:  Max 3.12E-08 RMS 5.13E-09

Current DIIS subspace size = 12
REM_GRID_RESTART_DIIS = 0

   12    -152.8534314338      5.13E-09  00000 Convergence criterion met
 ---------------------------------------
 SCF time:  CPU 1.74 s  wall 1.77 s
 SCF   energy in the final basis set = -152.85343143
 Total energy in the final basis set = -152.85343143
drvman_main.C: 73: calling DrvMan  Calculating analytic gradient of the SCF energy
drvman.C : 218: Calculating analytic gradient of the SCF energy
drvman.C: 244: calling SCF_Grad for normal SCF gradient
 Job number = 111, Threshold = 1.00E-11
Integral type ranges set in mkLRange.C for JobNum: 11  <1-6|7-7>
Finding J and K together
 ML is being used
 Job number = 122, Threshold = 1.00E-11
Integral type ranges set in mkLRange.C for JobNum: 22  <1-6|1-6>
 MakeJK  time:  CPU       0.40 s  wall       0.40 s
 Gradient of SCF Energy
            1           2           3           4           5           6
    1  -0.0020746   0.0209321  -0.0082656  -0.0352756  -0.1098666   0.1546936
    2  -0.1508519   0.1679573  -0.0244886  -0.0192377  -0.1156260   0.1385562
    3   0.1543477  -0.0461918  -0.0111004  -0.0207874  -0.0725474   0.0425726
            7           8           9          10
    1  -0.0452866  -0.0456572   0.0294998   0.0413006
    2  -0.0924222   0.0057363   0.0359265   0.0544503
    3   0.0856817  -0.0739615  -0.0452097  -0.0128039
 Max gradient component =       1.680E-01
 RMS gradient           =       7.967E-02
drvman.C: 248: out of SCF_Grad for normal SCF gradient
 Gradient time:  CPU 0.42 s  wall 0.42 s
 ------------------------------------------------------------------------------
                     drvman        : Timing summary (seconds)
 ------------------------------------------------------------------------------
     job step          cpu (% of tot)      sys (% of tot)     wall (% of tot)
 ------------------------------------------------------------------------------
 ------------------------------------------------------------------------------
   Grand Totals     0.4200E+00          0.3000E-05          0.4229E+00
 ------------------------------------------------------------------------------
drvman_main.C: 77: out of DrvMan  Time for this dynamics step: 2.2 s (CPU) 2.2 s (wall)

TIME STEP #400 (t = 7980.000 a.u. = 193.02697 fs)
--------------------------------------
 Instantaneous Temperature = 3714.3 K
 ----------------------------------------------------------------
             Standard Nuclear Orientation (Angstroms)
    I     Atom           X                Y                Z
 ----------------------------------------------------------------
    1      C       3.5078889866     2.9958430282    -0.0265813716
    2      C       3.0900787710     1.9770730602     0.4955365845
    3      H       3.2655822271     3.0673166907    -1.0554050434
    4      H       3.7583008401     3.9120409466     0.3843556062
    5      C       2.2432078397     1.0082667136    -0.4559885577
    6      C       1.4618176246     0.1306925869     0.0519510242
    7      H       1.1625544379    -0.6418212021     1.1103134817
    8      H       0.6408615186    -0.1671539377    -0.8966629077
    9      H       3.6257361582     1.9519138470     1.4487626998
   10      H       2.4275712416     1.6124211099    -1.3944867527
 ----------------------------------------------------------------
 Nuclear Repulsion Energy =   104.2711743415 hartrees
 There are       15 alpha and       15 beta electrons

                       Distance Matrix (Angstroms)
             C (  1)   C (  2)   H (  3)   H (  4)   C (  5)   C (  6)
   C (  2)  1.218632
   H (  3)  1.059386  1.903905
   H (  4)  1.034888  2.050118  1.740472
   C (  5)  2.394633  1.600368  2.375760  3.381359
   C (  6)  3.521599  2.501424  3.619885  4.436544  1.280121
   H (  7)  4.475011  3.309367  4.782339  5.291746  2.518711  1.344049
   H (  8)  4.356769  3.540423  4.168472  5.291433  2.035515  1.289399
   H (  9)  1.811164  1.093710  2.764903  2.234420  2.535731  3.154437
   H ( 10)  2.225333  2.035700  1.712881  3.197401  1.131270  2.284815
             H (  7)   H (  8)   H (  9)
   H (  8)  2.127305
   H (  9)  3.592948  4.347522
   H ( 10)  3.599431  2.570418  3.104017

 Applying Cartesian multipole field
    Component          Value
    ---------          -----
     (2,0,0)        1.00000E-11
     (0,2,0)        2.00000E-11
     (0,0,2)       -3.00000E-11
 Nucleus-field energy     =     0.0000000150 hartrees
 ENuRep (before)= 104.2711743415
 ENucField = 0.0000000150
 ENuRep (after) = 104.2711743565
 Job number = 2, Threshold = 1.00E-11
Integral type ranges set in mkLRange.C for JobNum: 2  <1-6|1-6>
Symmetry turned off temporarily
Symmetry turned back on
 Job number = 11, Threshold = 1.00E-11
Integral type ranges set in mkLRange.C for JobNum: 11  <1-6|7-7>
 Smallest overlap matrix eigenvalue = 1.35E-01
 Multipole matrices computed through 2nd order
 Extrapolating the Fock matrix using 12 points and a 6th-order polynomial
 Alpha Fock matrix extrapolation
 Skip SCF guess (diagonalize extrapolated Fock matrix instead)
 SCF convergence criterion is 10**(-8)
 A restricted Hartree-Fock SCF calculation will be
 performed using Pulay DIIS extrapolation
 SCF converges when DIIS error is below 1.0E-08
Extrapolated Fock matrix used in lieu of Fock build
Fock build time:  0.00 s (CPU) 0.00 s (wall)
DIIS Errors:  Max 1.10E-01 RMS 1.44E-02

Current DIIS subspace size = 1
REM_GRID_RESTART_DIIS = 0

 ---------------------------------------
  Cycle       Energy         DIIS Error
 ---------------------------------------
    1    -308.0575806743      1.44E-02  00000
Finding J and K together
 Job number = 22, Threshold = 1.00E-11
Integral type ranges set in mkLRange.C for JobNum: 22  <1-6|1-6>
 MakeJK  time:  CPU       0.14 s  wall       0.14 s
Fock build time:  0.14 s (CPU) 0.15 s (wall)
DIIS Errors:  Max 1.30E-01 RMS 1.18E-02

Current DIIS subspace size = 2
REM_GRID_RESTART_DIIS = 0

    2    -152.8225180250      1.18E-02  00000
Finding J and K together
 Job number = 22, Threshold = 1.00E-11
Integral type ranges set in mkLRange.C for JobNum: 22  <1-6|1-6>
 MakeJK  time:  CPU       0.14 s  wall       0.14 s
Fock build time:  0.14 s (CPU) 0.14 s (wall)
DIIS Errors:  Max 6.02E-02 RMS 5.70E-03

Current DIIS subspace size = 3
REM_GRID_RESTART_DIIS = 0

    3    -152.8254147598      5.70E-03  00000
Finding J and K together
 Job number = 22, Threshold = 1.00E-11
Integral type ranges set in mkLRange.C for JobNum: 22  <1-6|1-6>
 MakeJK  time:  CPU       0.12 s  wall       0.12 s
Fock build time:  0.12 s (CPU) 0.12 s (wall)
DIIS Errors:  Max 5.49E-03 RMS 6.84E-04

Current DIIS subspace size = 4
REM_GRID_RESTART_DIIS = 0

    4    -152.8265997967      6.84E-04  00000
Finding J and K together
 Job number = 22, Threshold = 1.00E-11
Integral type ranges set in mkLRange.C for JobNum: 22  <1-6|1-6>
 MakeJK  time:  CPU       0.12 s  wall       0.12 s
Fock build time:  0.12 s (CPU) 0.13 s (wall)
DIIS Errors:  Max 9.08E-04 RMS 1.40E-04

Current DIIS subspace size = 5
REM_GRID_RESTART_DIIS = 0

    5    -152.8266450582      1.40E-04  00000
Finding J and K together
 Job number = 22, Threshold = 1.00E-11
Integral type ranges set in mkLRange.C for JobNum: 22  <1-6|1-6>
 MakeJK  time:  CPU       0.17 s  wall       0.17 s
Fock build time:  0.17 s (CPU) 0.17 s (wall)
DIIS Errors:  Max 1.12E-04 RMS 2.15E-05

Current DIIS subspace size = 6
REM_GRID_RESTART_DIIS = 0

    6    -152.8266478813      2.15E-05  00000
Finding J and K together
 Job number = 22, Threshold = 1.00E-11
Integral type ranges set in mkLRange.C for JobNum: 22  <1-6|1-6>
 MakeJK  time:  CPU       0.20 s  wall       0.21 s
Fock build time:  0.20 s (CPU) 0.21 s (wall)
DIIS Errors:  Max 4.79E-05 RMS 6.62E-06

Current DIIS subspace size = 7
REM_GRID_RESTART_DIIS = 0

    7    -152.8266479433      6.62E-06  00000
Finding J and K together
 Job number = 22, Threshold = 1.00E-11
Integral type ranges set in mkLRange.C for JobNum: 22  <1-6|1-6>
 MakeJK  time:  CPU       0.19 s  wall       0.19 s
Fock build time:  0.19 s (CPU) 0.19 s (wall)
DIIS Errors:  Max 9.31E-06 RMS 1.92E-06

Current DIIS subspace size = 8
REM_GRID_RESTART_DIIS = 0

    8    -152.8266479489      1.92E-06  00000
Finding J and K together
 Job number = 22, Threshold = 1.00E-11
Integral type ranges set in mkLRange.C for JobNum: 22  <1-6|1-6>
 MakeJK  time:  CPU       0.18 s  wall       0.18 s
Fock build time:  0.18 s (CPU) 0.18 s (wall)
DIIS Errors:  Max 4.22E-06 RMS 5.86E-07

Current DIIS subspace size = 9
REM_GRID_RESTART_DIIS = 0

    9    -152.8266479496      5.86E-07  00000
Finding J and K together
 Job number = 22, Threshold = 1.00E-11
Integral type ranges set in mkLRange.C for JobNum: 22  <1-6|1-6>
 MakeJK  time:  CPU       0.20 s  wall       0.20 s
Fock build time:  0.20 s (CPU) 0.20 s (wall)
DIIS Errors:  Max 4.68E-07 RMS 7.04E-08

Current DIIS subspace size = 10
REM_GRID_RESTART_DIIS = 0

   10    -152.8266479496      7.04E-08  00000
Finding J and K together
 Job number = 22, Threshold = 1.00E-11
Integral type ranges set in mkLRange.C for JobNum: 22  <1-6|1-6>
 MakeJK  time:  CPU       0.19 s  wall       0.19 s
Fock build time:  0.19 s (CPU) 0.19 s (wall)
DIIS Errors:  Max 1.07E-07 RMS 1.65E-08

Current DIIS subspace size = 11
REM_GRID_RESTART_DIIS = 0

   11    -152.8266479496      1.65E-08  00000
Finding J and K together
 Job number = 22, Threshold = 1.00E-11
Integral type ranges set in mkLRange.C for JobNum: 22  <1-6|1-6>
 MakeJK  time:  CPU       0.11 s  wall       0.11 s
Fock build time:  0.11 s (CPU) 0.11 s (wall)
DIIS Errors:  Max 2.97E-08 RMS 5.28E-09

Current DIIS subspace size = 12
REM_GRID_RESTART_DIIS = 0

   12    -152.8266479496      5.28E-09  00000 Convergence criterion met
 ---------------------------------------
 SCF time:  CPU 1.78 s  wall 1.80 s
 SCF   energy in the final basis set = -152.82664795
 Total energy in the final basis set = -152.82664795
drvman_main.C: 73: calling DrvMan  Calculating analytic gradient of the SCF energy
drvman.C : 218: Calculating analytic gradient of the SCF energy
drvman.C: 244: calling SCF_Grad for normal SCF gradient
 Job number = 111, Threshold = 1.00E-11
Integral type ranges set in mkLRange.C for JobNum: 11  <1-6|7-7>
Finding J and K together
 ML is being used
 Job number = 122, Threshold = 1.00E-11
Integral type ranges set in mkLRange.C for JobNum: 22  <1-6|1-6>
 MakeJK  time:  CPU       0.48 s  wall       0.50 s
 Gradient of SCF Energy
            1           2           3           4           5           6
    1  -0.0032689   0.0064722  -0.0001457  -0.0387567  -0.1089978   0.1695645
    2  -0.1426829   0.1676696  -0.0240406  -0.0281036  -0.1156705   0.1469082
    3   0.1338622  -0.0720724   0.0253980  -0.0280485  -0.0806841   0.0469954
            7           8           9          10
    1  -0.0459392  -0.0642979   0.0450875   0.0402819
    2  -0.0940278  -0.0048214   0.0417193   0.0530497
    3   0.0934959  -0.0875199  -0.0213282  -0.0100983
 Max gradient component =       1.696E-01
 RMS gradient           =       8.176E-02
drvman.C: 248: out of SCF_Grad for normal SCF gradient
 Gradient time:  CPU 0.48 s  wall 0.51 s
 ------------------------------------------------------------------------------
                     drvman        : Timing summary (seconds)
 ------------------------------------------------------------------------------
     job step          cpu (% of tot)      sys (% of tot)     wall (% of tot)
 ------------------------------------------------------------------------------
 ------------------------------------------------------------------------------
   Grand Totals     0.4840E+00          0.2000E-05          0.5101E+00
 ------------------------------------------------------------------------------
drvman_main.C: 77: out of DrvMan  Time for this dynamics step: 2.3 s (CPU) 2.3 s (wall)

=============== TIME STEPS COMPLETED ==================

Step-to-Step energy fluctuations, |E(n) - E(n-1)|
Mean: -2.345e-06   Max: 2.344e-03   RMS: 5.428e-04
Overall energy fluctuations, |E(n) - E(0)|
Mean: -1.067e-03   Max: 3.310e-03   RMS: 6.878e-04   RMS(dE)/RMS(dV): 1.466e-02
Kinetic energy fluctuations, |T(n) - V(0)|
Mean: 1.510e-01   Max: 2.618e-01   RMS: 4.644e-02
Potential energy fluctuations, |V(n) - V(0)|
Mean: -1.521e-01   Max: 2.644e-01   RMS: 4.690e-02


 JobOver = TRUE
Archival summary:
1\1\qciep03\JobtypUnspecified\HF\STO-3G\46\jcartus\MonJun1812:08:362018MonJun1812:08:362018\0\\#,JobtypUnspecified,HF,STO-3G,\\0,1\C\H,1,1.09371\C,1,1.21863,2,102.987\H,3,1.03489,1,130.764,2,-36.801,0\H,3,1.05939,1,113.208,2,166.664,0\C,1,1.60037,2,139.768,3,163.789,0\H,6,1.13127,1,94.8022,2,-156.806,0\C,6,1.28012,1,120.139,2,37.0225,0\H,8,1.2894,6,104.778,1,160.067,0\H,8,1.34405,6,147.393,1,-24.1086,0\\HF=-152.826648\\@

 Total job time:  906.26s(wall), 887.24s(cpu) 
 Mon Jun 18 12:08:36 2018

        *************************************************************
        *                                                           *
        *  Thank you very much for using Q-Chem.  Have a nice day.  *
        *                                                           *
        *************************************************************


*** MISSION COMPLETED -- STARFLEET OUT ***

0 sent ACK to 0 
now end server 0 ... 
