Process 0 of 1 is on qciep03 - thread support 0
initial socket setup ...start
initial socket setup ...done 
now start server 0 ... 
qciep03.tugraz.at 127.0.1
Q-Chem Developer Version! Running on 127.0.1.*
                  Welcome to Q-Chem
     A Quantum Leap Into The Future Of Chemistry


 Q-Chem 5.0, Q-Chem, Inc., Pleasanton, CA (2017)

 Yihan Shao,  Zhengting Gan,  E. Epifanovsky,  A. T. B. Gilbert,  M. Wormit,  
 J. Kussmann,  A. W. Lange,  A. Behn,  Jia Deng,  Xintian Feng,  D. Ghosh,  
 M. Goldey,  P. R. Horn,  L. D. Jacobson,  I. Kaliman,  T. Kus,  A. Landau,  
 Jie Liu,  E. I. Proynov,  R. M. Richard,  R. P. Steele,  E. J. Sundstrom,  
 H. L. Woodcock III,  P. M. Zimmerman,  D. Zuev,  B. Albrecht,  E. Alguire,  
 S. A. Baeppler,  D. Barton,  Z. Benda,  Y. A. Bernard,  E. J. Berquist,  
 K. B. Bravaya,  H. Burton,  D. Casanova,  Chun-Min Chang,  Yunqing Chen,  
 A. Chien,  K. D. Closser,  M. P. Coons,  S. Dasgupta,  A. L. Dempwolff,  
 M. Diedenhofen,  Hainam Do,  R. G. Edgar,  Po-Tung Fang,  S. Fatehi,  
 Qingguo Feng,  J. Fosso-Tande,  Qinghui Ge,  A. Ghysels,  G. Gidofalvi,  
 J. Gomes,  J. Gonthier,  A. Gunina,  M. W. D. Hanson-Heine,  
 P. H. P. Harbach,  A. W. Hauser,  J. E. Herr,  E. G. Hohenstein,  
 Z. C. Holden,  Kerwin Hui,  T.-C. Jagau,  Hyunjun Ji,  B. Kaduk,  
 K. Khistyaev,  Jaehoon Kim,  P. Klunzinger,  K. Koh,  D. Kosenkov,  
 L. Koulias,  T. Kowalczyk,  C. M. Krauter,  A. Kunitsa,  Ka Un Lao,  
 A. Laurent,  K. V. Lawler,  Joonho Lee,  D. Lefrancois,  S. Lehtola,  
 D. S. Levine,  Yi-Pei Li,  You-Sheng Lin,  Fenglai Liu,  E. Livshits,  
 A. Luenser,  P. Manohar,  E. Mansoor,  S. F. Manzer,  Shan-Ping Mao,  
 Yuezhi Mao,  N. Mardirossian,  A. V. Marenich,  T. Markovich,  
 L. A. Martinez-Martinez,  S. A. Maurer,  N. J. Mayhall,  S. C. McKenzie,  
 J.-M. Mewes,  A. F. Morrison,  J. W. Mullinax,  K. Nanda,  
 T. S. Nguyen-Beck,  R. Olivares-Amaya,  J. A. Parkhill,  T. M. Perrine,  
 F. Plasser,  S. Prager,  A. Prociuk,  E. Ramos,  D. R. Rehn,  F. Rob,  
 M. Schneider,  N. Sergueev,  S. M. Sharada,  S. Sharma,  D. W. Small,  
 T. Stauch,  T. Stein,  Yu-Chuan Su,  A. J. W. Thom,  A. Tkatchenko,  
 T. Tsuchimochi,  L. Vogt,  O. Vydrov,  M. A. Watson,  J. Wenzel,  
 M. de Wergifosse,  T. A. Wesolowski,  A. White,  J. Witte,  A. Yamada,  
 Jun Yang,  K. Yao,  S. Yeganeh,  S. R. Yost,  Zhi-Qiang You,  A. Zech,  
 Igor Ying Zhang,  Xing Zhang,  Yan Zhao,  Ying Zhu,  B. R. Brooks,  
 G. K. L. Chan,  C. J. Cramer,  M. S. Gordon,  W. J. Hehre,  A. Klamt,  
 M. W. Schmidt,  C. D. Sherrill,  D. G. Truhlar,  A. Aspuru-Guzik,  R. Baer,  
 A. T. Bell,  N. A. Besley,  Jeng-Da Chai,  R. A. DiStasio Jr.,  A. Dreuw,  
 B. D. Dunietz,  T. R. Furlani,  Chao-Ping Hsu,  Yousung Jung,  Jing Kong,  
 D. S. Lambrecht,  WanZhen Liang,  C. Ochsenfeld,  V. A. Rassolov,  
 L. V. Slipchenko,  J. E. Subotnik,  T. Van Voorhis,  J. M. Herbert,  
 A. I. Krylov,  P. M. W. Gill,  M. Head-Gordon

 Contributors to earlier versions of Q-Chem not listed above: 
 R. D. Adamson,  B. Austin,  J. Baker,  G. J. O. Beran,  K. Brandhorst,  
 S. T. Brown,  E. F. C. Byrd,  A. K. Chakraborty,  C.-L. Cheng,  
 Siu Hung Chien,  D. M. Chipman,  D. L. Crittenden,  H. Dachsel,  
 R. J. Doerksen,  A. D. Dutoi,  L. Fusti-Molnar,  W. A. Goddard III,  
 A. Golubeva-Zadorozhnaya,  S. R. Gwaltney,  G. Hawkins,  A. Heyden,  
 S. Hirata,  G. Kedziora,  F. J. Keil,  C. Kelley,  Jihan Kim,  R. A. King,  
 R. Z. Khaliullin,  P. P. Korambath,  W. Kurlancheek,  A. M. Lee,  M. S. Lee,  
 S. V. Levchenko,  Ching Yeh Lin,  D. Liotard,  R. C. Lochan,  I. Lotan,  
 P. E. Maslen,  N. Nair,  D. P. O'Neill,  D. Neuhauser,  E. Neuscamman,  
 C. M. Oana,  R. Olson,  B. Peters,  R. Peverati,  P. A. Pieniazek,  
 Y. M. Rhee,  J. Ritchie,  M. A. Rohrdanz,  E. Rosta,  N. J. Russ,  
 H. F. Schaefer III,  N. E. Schultz,  N. Shenvi,  A. C. Simmonett,  A. Sodt,  
 D. Stuck,  K. S. Thanthiriwatte,  V. Vanovschi,  Tao Wang,  A. Warshel,  
 C. F. Williams,  Q. Wu,  X. Xu,  W. Zhang

 Please cite Q-Chem as follows:
 Y. Shao et al., Mol. Phys. 113, 184-215 (2015)
 DOI: 10.1080/00268976.2014.952696

 Q-Chem 5.0.2 for Intel X86 EM64T Linux

 Parts of Q-Chem use Armadillo 5.200.1 (Boston Tea Smuggler).
 http://arma.sourceforge.net/

 Q-Chem begins on Mon Jun 18 11:53:30 2018  


Host: 0

     Scratch files written to /home/jcartus/scratch/Butadien_1.mol.dir//
 Using version located at /usr/local/qchem/bin/qchem

 Parallel job on  1  processors
Symmetry disabled for AIMD jobs.

Total Memory Limit in MB = 2000
Mega-Array Size in MB = 192

Checking the input file for inconsistencies... 	...done.
Finally everything over in PARseQInput

--------------------------------------------------------------
User input:
--------------------------------------------------------------
$rem
AIMD_STEPS                    400
FOCK_EXTRAP_POINTS            12
MAX_SCF_CYCLES                100
BASIS                         sto-3g
AIMD_INIT_VELOC               thermal
FOCK_EXTRAP_ORDER             6
AIMD_TEMP                     400
AIMD_METHOD                   bomd
TIME_STEP                     20
METHOD                        hf
JOBTYPE                       aimd
$end

$molecule
0 1
C    5.51953    -1.37242    -1.12150
C    4.43410    -0.62901    -1.36549
H    6.32376    -0.98562    -0.50373
H    5.63175    -2.37794    -1.51393
C    3.33456    -1.09110    -2.17500
C    2.19963    -0.39791    -2.32440
H    1.39564    -0.78517    -2.94218
H    2.03593    0.55571    -1.83302
H    4.36868    0.36920    -0.93775
H    3.44126    -2.04760    -2.68237
$end


--------------------------------------------------------------
 ----------------------------------------------------------------
             Standard Nuclear Orientation (Angstroms)
    I     Atom           X                Y                Z
 ----------------------------------------------------------------
    1      C       5.5195300000    -1.3724200000    -1.1215000000
    2      C       4.4341000000    -0.6290100000    -1.3654900000
    3      H       6.3237600000    -0.9856200000    -0.5037300000
    4      H       5.6317500000    -2.3779400000    -1.5139300000
    5      C       3.3345600000    -1.0911000000    -2.1750000000
    6      C       2.1996300000    -0.3979100000    -2.3244000000
    7      H       1.3956400000    -0.7851700000    -2.9421800000
    8      H       2.0359300000     0.5557100000    -1.8330200000
    9      H       4.3686800000     0.3692000000    -0.9377500000
   10      H       3.4412600000    -2.0476000000    -2.6823700000
 ----------------------------------------------------------------
 Nuclear Repulsion Energy =   104.1617596737 hartrees
 There are       15 alpha and       15 beta electrons
 Requested basis set is STO-3G
 There are 14 shells and 26 basis functions

 Total QAlloc Memory Limit   2000 MB
 Mega-Array Size       188 MB
 MEM_STATIC part       192 MB

finished with qalloc call

                       Distance Matrix (Angstroms)
             C (  1)   C (  2)   H (  3)   H (  4)   C (  5)   C (  6)
   C (  2)  1.338039
   H (  3)  1.085375  2.107277
   H (  4)  1.085203  2.124890  1.854167
   C (  5)  2.441945  1.441465  3.426308  2.714784
   C (  6)  3.663110  2.442493  4.546283  4.044358  1.338245
   H (  7)  4.546010  3.426744  5.502053  4.745676  2.107503  1.085367
   H (  8)  4.044677  2.715394  4.746388  4.651671  2.124941  1.085193
   H (  9)  2.095581  1.087963  2.417902  3.078004  2.175470  2.686268
   H ( 10)  2.685403  2.175385  3.766043  2.504521  1.087980  2.095534
             H (  7)   H (  8)   H (  9)
   H (  8)  1.854229
   H (  9)  3.766866  2.505597
   H ( 10)  2.417807  3.077917  3.121655

 Job number = 2, Threshold = 1.00E-11
Integral type ranges set in mkLRange.C for JobNum: 2  <1-6|1-6>
Symmetry turned off temporarily
 Using the largest function pair in Schwarz integrals
Total number of integrals generated =            3252
Symmetry turned back on
 A cutoff of  1.0D-11 yielded    102 shell pairs
 There are       372 function pairs
 Job number = 11, Threshold = 1.00E-11
Integral type ranges set in mkLRange.C for JobNum: 11  <1-6|7-7>
Total number of integrals generated =            3720
 Smallest overlap matrix eigenvalue = 1.84E-01
 Multipole matrices computed through 2nd order

 Scale SEOQF with 1.000000e-02/1.000000e-01/1.000000e-01

 Standard Electronic Orientation quadrupole field applied
 Nucleus-field energy     =    -0.0000000067 hartrees
 ENuRep (before)= 104.1617596737
 ENucField = -0.0000000067
 ENuRep (after) = 104.1617596670
 Guess from superposition of atomic densities
 Warning:  Energy on first SCF cycle will be non-variational
 SAD guess density has 30.000000 electrons

 ==================================================
    GEN_SCFMAN: A general SCF calculation manager  
                                                   
    Authors:                                       
        -- Eric Jon Sundstrom 2008-2014            
        -- Paul Horn 2010-2015                     
        -- Yuezhi Mao 2012-                        
        -- Dmitri Zuev 2014                        
        -- Alec White 2015-                        
        -- David Stuck 2015                        
        -- Shaama M.S. 2015                        
        -- Shane Yost 2015-                         
        -- Joonho Lee 2016-                        
        -- David Small 2016-                       
        -- Daniel Levine 2016-                     
        -- Susi Lehtola 2017-                      
        -- Hugh Burton 2017-                       
 ==================================================
 Hartree-Fock
Finding J and K together
 Job number = 22, Threshold = 1.00E-11
Integral type ranges set in mkLRange.C for JobNum: 22  <1-6|1-6>
 MakeJK  time:  CPU       0.14 s  wall       0.13 s
 A restricted SCF calculation will be
 performed using DIIS
 SCF converges when DIIS error is below 1.0e-08
 ---------------------------------------
  Cycle       Energy         DIIS error
 ---------------------------------------
Finding J and K together
 Job number = 22, Threshold = 1.00E-11
Integral type ranges set in mkLRange.C for JobNum: 22  <1-6|1-6>
 MakeJK  time:  CPU       0.13 s  wall       0.13 s
    1    -152.6464070780      2.15e-01  
Finding J and K together
 Job number = 22, Threshold = 1.00E-11
Integral type ranges set in mkLRange.C for JobNum: 22  <1-6|1-6>
 MakeJK  time:  CPU       0.16 s  wall       0.17 s
    2    -152.9902236973      1.29e-02  
Finding J and K together
 Job number = 22, Threshold = 1.00E-11
Integral type ranges set in mkLRange.C for JobNum: 22  <1-6|1-6>
 MakeJK  time:  CPU       0.10 s  wall       0.11 s
    3    -153.0143377968      3.50e-03  
Finding J and K together
 Job number = 22, Threshold = 1.00E-11
Integral type ranges set in mkLRange.C for JobNum: 22  <1-6|1-6>
 MakeJK  time:  CPU       0.10 s  wall       0.10 s
    4    -153.0161254517      1.29e-03  
Finding J and K together
 Job number = 22, Threshold = 1.00E-11
Integral type ranges set in mkLRange.C for JobNum: 22  <1-6|1-6>
 MakeJK  time:  CPU       0.10 s  wall       0.10 s
    5    -153.0162981933      9.60e-05  
Finding J and K together
 Job number = 22, Threshold = 1.00E-11
Integral type ranges set in mkLRange.C for JobNum: 22  <1-6|1-6>
 MakeJK  time:  CPU       0.10 s  wall       0.10 s
    6    -153.0163013881      1.29e-05  
Finding J and K together
 Job number = 22, Threshold = 1.00E-11
Integral type ranges set in mkLRange.C for JobNum: 22  <1-6|1-6>
 MakeJK  time:  CPU       0.11 s  wall       0.11 s
    7    -153.0163014486      1.50e-06  
Finding J and K together
 Job number = 22, Threshold = 1.00E-11
Integral type ranges set in mkLRange.C for JobNum: 22  <1-6|1-6>
 MakeJK  time:  CPU       0.17 s  wall       0.18 s
    8    -153.0163014491      1.31e-07  
Finding J and K together
 Job number = 22, Threshold = 1.00E-11
Integral type ranges set in mkLRange.C for JobNum: 22  <1-6|1-6>
 MakeJK  time:  CPU       0.17 s  wall       0.17 s
    9    -153.0163014491      4.46e-08  
Finding J and K together
 Job number = 22, Threshold = 1.00E-11
Integral type ranges set in mkLRange.C for JobNum: 22  <1-6|1-6>
 MakeJK  time:  CPU       0.17 s  wall       0.18 s
   10    -153.0163014491      1.97e-08  
   11    -153.0163014491      3.10e-09  Convergence criterion met
 ---------------------------------------
 SCF time:   CPU 1.46s  wall 1.00s 
 Total energy in the final basis set =     -153.0163014491
Wall  1 = 1
Clock 1 = 1.4638930559
 ==================================================
                  Done GEN_SCFMAN                  
 ==================================================

Symmetry turned off temporarily

 --------------------------------------------------------------

                    Orbital Energies (a.u.)
 --------------------------------------------------------------

 Alpha MOs
 -- Occupied --
-11.030 -11.030 -11.016 -11.016  -1.036  -0.942  -0.772  -0.708
 -0.591  -0.591  -0.499  -0.491  -0.443  -0.398  -0.261
 -- Virtual --
  0.243   0.420   0.594   0.674   0.684   0.697   0.699   0.880
  0.911   1.025   1.077
 --------------------------------------------------------------

          Ground-State Mulliken Net Atomic Charges

     Atom                 Charge (a.u.)
  ----------------------------------------
      1 C                    -0.124641
      2 C                    -0.059627
      3 H                     0.060914
      4 H                     0.060795
      5 C                    -0.059584
      6 C                    -0.124667
      7 H                     0.060920
      8 H                     0.060767
      9 H                     0.062584
     10 H                     0.062540
  ----------------------------------------
  Sum of atomic charges =    -0.000000

 -----------------------------------------------------------------
                    Cartesian Multipole Moments
 -----------------------------------------------------------------
    Charge (ESU x 10^10)
                -0.0000
    Dipole Moment (Debye)
         X      -0.0035      Y      -0.0040      Z       0.0077
       Tot       0.0094
    Quadrupole Moments (Debye-Ang)
        XX     -23.1583     XY      -0.4616     YY     -22.6227
        XZ       0.8393     YZ       1.0854     ZZ     -24.1872
    Octopole Moments (Debye-Ang^2)
       XXX    -269.0114    XXY      16.7770    XYY     -86.6475
       YYY      59.2326    XXZ      46.8891    XYZ       4.1469
       YYZ      37.6789    XZZ     -96.4204    YZZ      17.2468
       ZZZ     126.4170
    Hexadecapole Moments (Debye-Ang^3)
      XXXX   -2360.3257   XXXY     245.8853   XXYY    -406.9059
      XYYY     255.6687   YYYY    -167.6175   XXXZ     463.5926
      XXYZ     -17.0197   XYYZ     126.9620   YYYZ     -96.0961
      XXZZ    -510.6450   XYZZ      79.9451   YYZZ    -104.1112
      XZZZ     445.2806   YZZZ     -95.9734   ZZZZ    -512.6497
 -----------------------------------------------------------------
drvman_main.C: 73: calling DrvMan  Calculating analytic gradient of the SCF energy
drvman.C : 218: Calculating analytic gradient of the SCF energy
drvman.C: 244: calling SCF_Grad for normal SCF gradient
 Job number = 111, Threshold = 1.00E-11
Integral type ranges set in mkLRange.C for JobNum: 11  <1-6|7-7>
Finding J and K together
 ML is being used
 Job number = 122, Threshold = 1.00E-11
Integral type ranges set in mkLRange.C for JobNum: 22  <1-6|1-6>
Total number of integrals generated =           70466
 MakeJK  time:  CPU       0.43 s  wall       0.45 s
 Gradient of SCF Energy
            1           2           3           4           5           6
    1   0.0238940  -0.0611761   0.0009389  -0.0004808   0.0624338  -0.0249648
    2  -0.0226835   0.0135479   0.0042937  -0.0036885  -0.0126754   0.0220153
    3   0.0015454  -0.0258638   0.0025309  -0.0009133   0.0241890  -0.0002316
            7           8           9          10
    1  -0.0008052  -0.0003431   0.0022097  -0.0017064
    2  -0.0041465   0.0028145   0.0035787  -0.0030563
    3  -0.0027947   0.0025591   0.0022383  -0.0032593
 Max gradient component =       6.243E-02
 RMS gradient           =       1.963E-02
drvman.C: 248: out of SCF_Grad for normal SCF gradient
 Gradient time:  CPU 0.45 s  wall 0.47 s
 ------------------------------------------------------------------------------
                     drvman        : Timing summary (seconds)
 ------------------------------------------------------------------------------
     job step          cpu (% of tot)      sys (% of tot)     wall (% of tot)
 ------------------------------------------------------------------------------
 ------------------------------------------------------------------------------
   Grand Totals     0.4520E+00          0.1000E-05          0.4688E+00
 ------------------------------------------------------------------------------
drvman_main.C: 77: out of DrvMan =======================================================
            AB INITIO MOLECULAR DYNAMICS
=======================================================
Directory /home/jcartus/scratch/Butadien_1.mol.dir/AIMD already exists
AIMD will take 400 BOMD steps Velocity Verlet integration
Time step = 20.00000 a.u. ( = 0.48378 fs)
Total simulation time requested = 193.511 fs
Integral threshold = 10**(-11)
SCF convergence threshold = 10**(-8)
Generating viewable xyz trajectory,
 file (in Angstroms) at AIMD/View.xyz
Choosing nuclear velocities from Maxwell-Boltzmann
Velocities sampled from Maxwell-Boltzmann at T = 400.0 K
sqrt(kT/m) and (vx,vy,vz) for each atom:
  1   2.4064e-04  -1.44e-04   3.45e-04  -2.66e-04 
  2   2.4064e-04   1.28e-05   1.43e-04   8.08e-05 
  3   8.3036e-04   1.12e-03   8.92e-04  -7.88e-04 
  4   8.3036e-04   1.36e-04  -9.00e-04   5.04e-04 
  5   2.4064e-04  -6.52e-05   1.43e-04  -5.34e-05 
  6   2.4064e-04   5.31e-04  -3.50e-04   5.45e-04 
  7   8.3036e-04   5.84e-04  -6.34e-04   1.85e-04 
  8   8.3036e-04  -6.01e-04  -6.09e-04  -3.87e-04 
  9   8.3036e-04   5.62e-04   5.83e-05   7.81e-04 
 10   8.3036e-04   2.91e-04   1.16e-03  -1.71e-04 
T(nuclear) = 0.01774031 a.u.
v(c.o.m.) = (  1.1340e-04,   6.1702e-05,   7.0259e-05)
T(c.o.m.) = 1.06416e-03 a.u.
kT/2 = 0.000633 a.u.
Tx   = 0.005543 a.u.
Ty   = 0.006516 a.u.
Tz   = 0.005681 a.u.
Mean velocities (a.u.):   2.4259e-04   2.4948e-05   4.2978e-05
Removing c.o.m. velocity
T(nuclear) = 0.01819670 a.u.
v(c.o.m.) = ( -5.6344e-21,  -1.8030e-20,   1.1269e-20)
T(c.o.m.) = 2.38333e-35 a.u.
kT   = 0.001267 a.u. = 0.79 kcal/mol
Tx   = 0.004985 a.u. = 3.13 kcal/mol
Ty   = 0.007002 a.u. = 4.39 kcal/mol
Tz   = 0.006210 a.u. = 3.90 kcal/mol
Initial velocities in m/s
  1     -4.2624e+02      6.9404e+02     -6.5132e+02 
  2     -8.3788e+01      2.5196e+02      1.0764e+02 
  3      1.1189e+03      1.2270e+03     -2.5482e+03 
  4     -1.0324e+03     -2.6918e+03      2.7858e+02 
  5     -2.5439e+02      2.5102e+02     -1.8611e+02 
  6      1.0507e+03     -8.2654e+02      1.1224e+03 
  7     -5.3193e+01     -2.1119e+03     -4.2053e+02 
  8     -2.6457e+03     -2.0569e+03     -1.6699e+03 
  9     -1.0152e+02     -5.9628e+02      8.8323e+02 
 10     -6.9459e+02      1.8186e+03     -1.1981e+03 
----------------------------------------------------------------------------
       Nuclear coordinates (Angst) and velocities (a.u.)
----------------------------------------------------------------------------
             x        y        z            v_x         v_y        v_z
----------------------------------------------------------------------------
1      C    5.5195  -1.3724  -1.1215    -1.9483e-04   3.1725e-04  -2.9772e-04
2      C    4.4341  -0.6290  -1.3655    -3.8300e-05   1.1517e-04   4.9201e-05
3      H    6.3238  -0.9856  -0.5037     5.1147e-04   5.6086e-04  -1.1648e-03
4      H    5.6318  -2.3779  -1.5139    -4.7189e-04  -1.2304e-03   1.2734e-04
5      C    3.3346  -1.0911  -2.1750    -1.1628e-04   1.1474e-04  -8.5073e-05
6      C    2.1996  -0.3979  -2.3244     4.8026e-04  -3.7781e-04   5.1306e-04
7      H    1.3956  -0.7852  -2.9422    -2.4315e-05  -9.6534e-04  -1.9223e-04
8      H    2.0359   0.5557  -1.8330    -1.2093e-03  -9.4020e-04  -7.6333e-04
9      H    4.3687   0.3692  -0.9377    -4.6403e-05  -2.7256e-04   4.0373e-04
10     H    3.4413  -2.0476  -2.6824    -3.1750e-04   8.3129e-04  -5.4767e-04
----------------------------------------------------------------------------
Write nuclear velocities every 1 time steps

TIME STEP #1 (t = 0.000 a.u. = 0.00000 fs)
--------------------------------------
 Instantaneous Temperature = 383.1 K
 ----------------------------------------------------------------
             Standard Nuclear Orientation (Angstroms)
    I     Atom           X                Y                Z
 ----------------------------------------------------------------
    1      C       5.5173523527    -1.3689526596    -1.1246583920
    2      C       4.4339906379    -0.6278566253    -1.3648441390
    3      H       6.3291190963    -0.9799314185    -0.5162031820
    4      H       5.6267834114    -2.3907497599    -1.5125296917
    5      C       3.3330272636    -1.0898242962    -2.1760174036
    6      C       2.2048336823    -0.4020151196    -2.3189688746
    7      H       1.3954290499    -0.7951478782    -2.9440534297
    8      H       2.0231506221     0.5455972245    -1.8412461241
    9      H       4.3680615898     0.3661091722    -0.9336060730
   10      H       3.4379980180    -2.0386259296    -2.6879785402
 ----------------------------------------------------------------
 Nuclear Repulsion Energy =   104.3129356081 hartrees
 There are       15 alpha and       15 beta electrons

                       Distance Matrix (Angstroms)
             C (  1)   C (  2)   H (  3)   H (  4)   C (  5)   C (  6)
   C (  2)  1.334386
   H (  3)  1.086518  2.106101
   H (  4)  1.098403  2.133626  1.864497
   C (  5)  2.440194  1.443446  3.426897  2.719180
   C (  6)  3.651592  2.435262  4.538026  4.039202  1.329036
   H (  7)  4.541993  3.428519  5.501809  4.743371  2.104994  1.095637
   H (  8)  4.048264  2.723252  4.756505  4.660081  2.121898  1.076660
   H (  9)  2.089931  1.085486  2.414911  3.085418  2.175919  2.681194
   H ( 10)  2.686289  2.175536  3.767761  2.509273  1.083212  2.082152
             H (  7)   H (  8)   H (  9)
   H (  8)  1.846027
   H (  9)  3.771864  2.520840
   H ( 10)  2.404974  3.065446  3.118588

 Applying Cartesian multipole field
    Component          Value
    ---------          -----
     (2,0,0)        1.00000E-12
     (0,2,0)        2.00000E-11
     (0,0,2)       -3.00000E-11
 Nucleus-field energy     =    -0.0000000067 hartrees
 ENuRep (before)= 104.3129356081
 ENucField = -0.0000000067
 ENuRep (after) = 104.3129356013
 Job number = 2, Threshold = 1.00E-11
Integral type ranges set in mkLRange.C for JobNum: 2  <1-6|1-6>
Symmetry turned off temporarily
Symmetry turned back on
 Job number = 11, Threshold = 1.00E-11
Integral type ranges set in mkLRange.C for JobNum: 11  <1-6|7-7>
 Smallest overlap matrix eigenvalue = 1.81E-01
 Multipole matrices computed through 2nd order
 Guess from superposition of atomic densities
 Warning:  Energy on first SCF cycle will be non-variational
 SAD guess density has 30.000000 electrons
 SCF convergence criterion is 10**(-8)
 A restricted Hartree-Fock SCF calculation will be
 performed using Pulay DIIS extrapolation
 SCF converges when DIIS error is below 1.0E-08
Finding J and K together
 Job number = 22, Threshold = 1.00E-11
Integral type ranges set in mkLRange.C for JobNum: 22  <1-6|1-6>
 MakeJK  time:  CPU       0.13 s  wall       0.14 s
Fock build time:  0.13 s (CPU) 0.14 s (wall)
DIIS Errors:  Max 1.11E+00 RMS 2.16E-01

Current DIIS subspace size = 1
REM_GRID_RESTART_DIIS = 0

 ---------------------------------------
  Cycle       Energy         DIIS Error
 ---------------------------------------
    1    -152.6626733831      2.16E-01  00000
Finding J and K together
 Job number = 22, Threshold = 1.00E-11
Integral type ranges set in mkLRange.C for JobNum: 22  <1-6|1-6>
 MakeJK  time:  CPU       0.16 s  wall       0.16 s
Fock build time:  0.16 s (CPU) 0.16 s (wall)
DIIS Errors:  Max 6.13E-02 RMS 1.29E-02

Current DIIS subspace size = 2
REM_GRID_RESTART_DIIS = 0

    2    -152.9905828914      1.29E-02  00000
Finding J and K together
 Job number = 22, Threshold = 1.00E-11
Integral type ranges set in mkLRange.C for JobNum: 22  <1-6|1-6>
 MakeJK  time:  CPU       0.16 s  wall       0.18 s
Fock build time:  0.16 s (CPU) 0.18 s (wall)
DIIS Errors:  Max 1.88E-02 RMS 3.49E-03

Current DIIS subspace size = 3
REM_GRID_RESTART_DIIS = 0

    3    -153.0146699973      3.49E-03  00000
Finding J and K together
 Job number = 22, Threshold = 1.00E-11
Integral type ranges set in mkLRange.C for JobNum: 22  <1-6|1-6>
 MakeJK  time:  CPU       0.17 s  wall       0.18 s
Fock build time:  0.17 s (CPU) 0.18 s (wall)
DIIS Errors:  Max 6.60E-03 RMS 1.25E-03

Current DIIS subspace size = 4
REM_GRID_RESTART_DIIS = 0

    4    -153.0164431202      1.25E-03  00000
Finding J and K together
 Job number = 22, Threshold = 1.00E-11
Integral type ranges set in mkLRange.C for JobNum: 22  <1-6|1-6>
 MakeJK  time:  CPU       0.17 s  wall       0.17 s
Fock build time:  0.17 s (CPU) 0.17 s (wall)
DIIS Errors:  Max 6.69E-04 RMS 9.26E-05

Current DIIS subspace size = 5
REM_GRID_RESTART_DIIS = 0

    5    -153.0166053606      9.26E-05  00000
Finding J and K together
 Job number = 22, Threshold = 1.00E-11
Integral type ranges set in mkLRange.C for JobNum: 22  <1-6|1-6>
 MakeJK  time:  CPU       0.17 s  wall       0.17 s
Fock build time:  0.17 s (CPU) 0.17 s (wall)
DIIS Errors:  Max 1.02E-04 RMS 1.36E-05

Current DIIS subspace size = 6
REM_GRID_RESTART_DIIS = 0

    6    -153.0166082924      1.36E-05  00000
Finding J and K together
 Job number = 22, Threshold = 1.00E-11
Integral type ranges set in mkLRange.C for JobNum: 22  <1-6|1-6>
 MakeJK  time:  CPU       0.17 s  wall       0.17 s
Fock build time:  0.17 s (CPU) 0.17 s (wall)
DIIS Errors:  Max 1.23E-05 RMS 3.04E-06

Current DIIS subspace size = 7
REM_GRID_RESTART_DIIS = 0

    7    -153.0166083548      3.04E-06  00000
Finding J and K together
 Job number = 22, Threshold = 1.00E-11
Integral type ranges set in mkLRange.C for JobNum: 22  <1-6|1-6>
 MakeJK  time:  CPU       0.17 s  wall       0.17 s
Fock build time:  0.17 s (CPU) 0.17 s (wall)
DIIS Errors:  Max 4.04E-06 RMS 9.13E-07

Current DIIS subspace size = 8
REM_GRID_RESTART_DIIS = 0

    8    -153.0166083562      9.13E-07  00000
Finding J and K together
 Job number = 22, Threshold = 1.00E-11
Integral type ranges set in mkLRange.C for JobNum: 22  <1-6|1-6>
 MakeJK  time:  CPU       0.17 s  wall       0.17 s
Fock build time:  0.17 s (CPU) 0.17 s (wall)
DIIS Errors:  Max 5.71E-07 RMS 9.96E-08

Current DIIS subspace size = 9
REM_GRID_RESTART_DIIS = 0

    9    -153.0166083563      9.96E-08  00000
Finding J and K together
 Job number = 22, Threshold = 1.00E-11
Integral type ranges set in mkLRange.C for JobNum: 22  <1-6|1-6>
 MakeJK  time:  CPU       0.17 s  wall       0.17 s
Fock build time:  0.17 s (CPU) 0.17 s (wall)
DIIS Errors:  Max 2.60E-07 RMS 4.21E-08

Current DIIS subspace size = 10
REM_GRID_RESTART_DIIS = 0

   10    -153.0166083563      4.21E-08  00000
Finding J and K together
 Job number = 22, Threshold = 1.00E-11
Integral type ranges set in mkLRange.C for JobNum: 22  <1-6|1-6>
 MakeJK  time:  CPU       0.17 s  wall       0.17 s
Fock build time:  0.17 s (CPU) 0.17 s (wall)
DIIS Errors:  Max 4.59E-08 RMS 8.57E-09

Current DIIS subspace size = 11
REM_GRID_RESTART_DIIS = 0

   11    -153.0166083563      8.57E-09  00000 Convergence criterion met
 ---------------------------------------
 SCF time:  CPU 1.82 s  wall 1.87 s
 SCF   energy in the final basis set = -153.01660836
 Total energy in the final basis set = -153.01660836
drvman_main.C: 73: calling DrvMan  Calculating analytic gradient of the SCF energy
drvman.C : 218: Calculating analytic gradient of the SCF energy
drvman.C: 244: calling SCF_Grad for normal SCF gradient
 Job number = 111, Threshold = 1.00E-11
Integral type ranges set in mkLRange.C for JobNum: 11  <1-6|7-7>
Finding J and K together
 ML is being used
 Job number = 122, Threshold = 1.00E-11
Integral type ranges set in mkLRange.C for JobNum: 22  <1-6|1-6>
 MakeJK  time:  CPU       0.43 s  wall       0.45 s
 Gradient of SCF Energy
            1           2           3           4           5           6
    1   0.0177767  -0.0570371   0.0019279   0.0004497   0.0515303  -0.0055583
    2  -0.0093850   0.0140321   0.0048226  -0.0147762  -0.0116381   0.0256839
    3   0.0038803  -0.0233083   0.0023826  -0.0042203   0.0186422   0.0122941
            7           8           9          10
    1  -0.0076623  -0.0010700   0.0023065  -0.0026634
    2  -0.0068986  -0.0039053   0.0012284   0.0008361
    3  -0.0076981  -0.0023526   0.0021845  -0.0018044
 Max gradient component =       5.704E-02
 RMS gradient           =       1.720E-02
drvman.C: 248: out of SCF_Grad for normal SCF gradient
 Gradient time:  CPU 0.45 s  wall 0.47 s
 ------------------------------------------------------------------------------
                     drvman        : Timing summary (seconds)
 ------------------------------------------------------------------------------
     job step          cpu (% of tot)      sys (% of tot)     wall (% of tot)
 ------------------------------------------------------------------------------
 ------------------------------------------------------------------------------
   Grand Totals     0.4520E+00          0.1000E-05          0.4750E+00
 ------------------------------------------------------------------------------
drvman_main.C: 77: out of DrvMan  Time for this dynamics step: 2.3 s (CPU) 2.4 s (wall)

TIME STEP #2 (t = 20.000 a.u. = 0.48378 fs)
--------------------------------------
 Instantaneous Temperature = 389.6 K
 ----------------------------------------------------------------
             Standard Nuclear Orientation (Angstroms)
    I     Atom           X                Y                Z
 ----------------------------------------------------------------
    1      C       5.5150026885    -1.3653945047    -1.1278543320
    2      C       4.4344331975    -0.6268390331    -1.3639727341
    3      H       6.3342560662    -0.9747984790    -0.5289508792
    4      H       5.6217650108    -2.4018570576    -1.5106431417
    5      C       3.3309958929    -1.0884359764    -2.1772151992
    6      C       2.2100911491    -0.4063687705    -2.3136567136
    7      H       1.3961009159    -0.8043309235    -2.9450399165
    8      H       2.0104945231     0.5359344055    -1.8492011885
    9      H       4.3671774382     0.3628768092    -0.9297138349
   10      H       3.4350429032    -2.0297481963    -2.6933791788
 ----------------------------------------------------------------
 Nuclear Repulsion Energy =   104.4813737794 hartrees
 There are       15 alpha and       15 beta electrons

                       Distance Matrix (Angstroms)
             C (  1)   C (  2)   H (  3)   H (  4)   C (  5)   C (  6)
   C (  2)  1.329980
   H (  3)  1.087394  2.104202
   H (  4)  1.110036  2.140551  1.872928
   C (  5)  2.438801  1.446378  3.427719  2.723420
   C (  6)  3.639821  2.428622  4.529572  4.033153  1.319189
   H (  7)  4.536773  3.429685  5.500175  4.739812  2.100973  1.104354
   H (  8)  4.051786  2.731843  4.766580  4.667603  2.118938  1.069342
   H (  9)  2.084151  1.082886  2.412340  3.091152  2.176291  2.675828
   H ( 10)  2.686720  2.175835  3.768701  2.513779  1.078573  2.068830
             H (  7)   H (  8)   H (  9)
   H (  8)  1.837023
   H (  9)  3.775077  2.535618
   H ( 10)  2.392126  3.053637  3.115132

 Applying Cartesian multipole field
    Component          Value
    ---------          -----
     (2,0,0)        1.00000E-12
     (0,2,0)        2.00000E-11
     (0,0,2)       -3.00000E-11
 Nucleus-field energy     =    -0.0000000067 hartrees
 ENuRep (before)= 104.4813737794
 ENucField = -0.0000000067
 ENuRep (after) = 104.4813737727
 Job number = 2, Threshold = 1.00E-11
Integral type ranges set in mkLRange.C for JobNum: 2  <1-6|1-6>
Symmetry turned off temporarily
Symmetry turned back on
 Job number = 11, Threshold = 1.00E-11
Integral type ranges set in mkLRange.C for JobNum: 11  <1-6|7-7>
 Smallest overlap matrix eigenvalue = 1.78E-01
 Multipole matrices computed through 2nd order
 Guess from superposition of atomic densities
 Warning:  Energy on first SCF cycle will be non-variational
 SAD guess density has 30.000000 electrons
 SCF convergence criterion is 10**(-8)
 A restricted Hartree-Fock SCF calculation will be
 performed using Pulay DIIS extrapolation
 SCF converges when DIIS error is below 1.0E-08
Finding J and K together
 Job number = 22, Threshold = 1.00E-11
Integral type ranges set in mkLRange.C for JobNum: 22  <1-6|1-6>
 MakeJK  time:  CPU       0.13 s  wall       0.13 s
Fock build time:  0.13 s (CPU) 0.13 s (wall)
DIIS Errors:  Max 1.13E+00 RMS 2.18E-01

Current DIIS subspace size = 1
REM_GRID_RESTART_DIIS = 0

 ---------------------------------------
  Cycle       Energy         DIIS Error
 ---------------------------------------
    1    -152.6828166547      2.18E-01  00000
Finding J and K together
 Job number = 22, Threshold = 1.00E-11
Integral type ranges set in mkLRange.C for JobNum: 22  <1-6|1-6>
 MakeJK  time:  CPU       0.17 s  wall       0.17 s
Fock build time:  0.17 s (CPU) 0.17 s (wall)
DIIS Errors:  Max 6.19E-02 RMS 1.29E-02

Current DIIS subspace size = 2
REM_GRID_RESTART_DIIS = 0

    2    -152.9901789020      1.29E-02  00000
Finding J and K together
 Job number = 22, Threshold = 1.00E-11
Integral type ranges set in mkLRange.C for JobNum: 22  <1-6|1-6>
 MakeJK  time:  CPU       0.17 s  wall       0.18 s
Fock build time:  0.17 s (CPU) 0.18 s (wall)
DIIS Errors:  Max 1.87E-02 RMS 3.47E-03

Current DIIS subspace size = 3
REM_GRID_RESTART_DIIS = 0

    3    -153.0142416243      3.47E-03  00000
Finding J and K together
 Job number = 22, Threshold = 1.00E-11
Integral type ranges set in mkLRange.C for JobNum: 22  <1-6|1-6>
 MakeJK  time:  CPU       0.16 s  wall       0.17 s
Fock build time:  0.16 s (CPU) 0.17 s (wall)
DIIS Errors:  Max 6.48E-03 RMS 1.21E-03

Current DIIS subspace size = 4
REM_GRID_RESTART_DIIS = 0

    4    -153.0159986211      1.21E-03  00000
Finding J and K together
 Job number = 22, Threshold = 1.00E-11
Integral type ranges set in mkLRange.C for JobNum: 22  <1-6|1-6>
 MakeJK  time:  CPU       0.17 s  wall       0.17 s
Fock build time:  0.17 s (CPU) 0.17 s (wall)
DIIS Errors:  Max 6.43E-04 RMS 8.91E-05

Current DIIS subspace size = 5
REM_GRID_RESTART_DIIS = 0

    5    -153.0161502991      8.91E-05  00000
Finding J and K together
 Job number = 22, Threshold = 1.00E-11
Integral type ranges set in mkLRange.C for JobNum: 22  <1-6|1-6>
 MakeJK  time:  CPU       0.13 s  wall       0.13 s
Fock build time:  0.13 s (CPU) 0.13 s (wall)
DIIS Errors:  Max 1.05E-04 RMS 1.51E-05

Current DIIS subspace size = 6
REM_GRID_RESTART_DIIS = 0

    6    -153.0161529556      1.51E-05  00000
Finding J and K together
 Job number = 22, Threshold = 1.00E-11
Integral type ranges set in mkLRange.C for JobNum: 22  <1-6|1-6>
 MakeJK  time:  CPU       0.16 s  wall       0.16 s
Fock build time:  0.16 s (CPU) 0.16 s (wall)
DIIS Errors:  Max 2.03E-05 RMS 4.39E-06

Current DIIS subspace size = 7
REM_GRID_RESTART_DIIS = 0

    7    -153.0161530223      4.39E-06  00000
Finding J and K together
 Job number = 22, Threshold = 1.00E-11
Integral type ranges set in mkLRange.C for JobNum: 22  <1-6|1-6>
 MakeJK  time:  CPU       0.12 s  wall       0.12 s
Fock build time:  0.12 s (CPU) 0.12 s (wall)
DIIS Errors:  Max 4.50E-06 RMS 9.23E-07

Current DIIS subspace size = 8
REM_GRID_RESTART_DIIS = 0

    8    -153.0161530251      9.23E-07  00000
Finding J and K together
 Job number = 22, Threshold = 1.00E-11
Integral type ranges set in mkLRange.C for JobNum: 22  <1-6|1-6>
 MakeJK  time:  CPU       0.12 s  wall       0.12 s
Fock build time:  0.12 s (CPU) 0.12 s (wall)
DIIS Errors:  Max 9.79E-07 RMS 1.56E-07

Current DIIS subspace size = 9
REM_GRID_RESTART_DIIS = 0

    9    -153.0161530252      1.56E-07  00000
Finding J and K together
 Job number = 22, Threshold = 1.00E-11
Integral type ranges set in mkLRange.C for JobNum: 22  <1-6|1-6>
 MakeJK  time:  CPU       0.16 s  wall       0.16 s
Fock build time:  0.16 s (CPU) 0.16 s (wall)
DIIS Errors:  Max 3.97E-07 RMS 6.32E-08

Current DIIS subspace size = 10
REM_GRID_RESTART_DIIS = 0

   10    -153.0161530252      6.32E-08  00000
Finding J and K together
 Job number = 22, Threshold = 1.00E-11
Integral type ranges set in mkLRange.C for JobNum: 22  <1-6|1-6>
 MakeJK  time:  CPU       0.14 s  wall       0.13 s
Fock build time:  0.14 s (CPU) 0.13 s (wall)
DIIS Errors:  Max 5.08E-08 RMS 1.06E-08

Current DIIS subspace size = 11
REM_GRID_RESTART_DIIS = 0

   11    -153.0161530252      1.06E-08  00000
Finding J and K together
 Job number = 22, Threshold = 1.00E-11
Integral type ranges set in mkLRange.C for JobNum: 22  <1-6|1-6>
 MakeJK  time:  CPU       0.14 s  wall       0.14 s
Fock build time:  0.14 s (CPU) 0.14 s (wall)
DIIS Errors:  Max 1.16E-08 RMS 1.97E-09

Current DIIS subspace size = 12
REM_GRID_RESTART_DIIS = 0

   12    -153.0161530252      1.97E-09  00000 Convergence criterion met
 ---------------------------------------
 SCF time:  CPU 1.80 s  wall 1.82 s
 SCF   energy in the final basis set = -153.01615303
 Total energy in the final basis set = -153.01615303
drvman_main.C: 73: calling DrvMan  Calculating analytic gradient of the SCF energy
drvman.C : 218: Calculating analytic gradient of the SCF energy
drvman.C: 244: calling SCF_Grad for normal SCF gradient
 Job number = 111, Threshold = 1.00E-11
Integral type ranges set in mkLRange.C for JobNum: 11  <1-6|7-7>
Finding J and K together
 ML is being used
 Job number = 122, Threshold = 1.00E-11
Integral type ranges set in mkLRange.C for JobNum: 22  <1-6|1-6>
 MakeJK  time:  CPU       0.34 s  wall       0.35 s
 Gradient of SCF Energy
            1           2           3           4           5           6
    1   0.0110760  -0.0511775   0.0027829   0.0011738   0.0384927   0.0138143
    2   0.0028889   0.0140838   0.0052075  -0.0240691  -0.0098105   0.0271732
    3   0.0053305  -0.0200365   0.0020762  -0.0066495   0.0125332   0.0234366
            7           8           9          10
    1  -0.0132172  -0.0017242   0.0022997  -0.0035204
    2  -0.0089890  -0.0099348  -0.0012481   0.0046981
    3  -0.0115999  -0.0068242   0.0019898  -0.0002562
 Max gradient component =       5.118E-02
 RMS gradient           =       1.617E-02
drvman.C: 248: out of SCF_Grad for normal SCF gradient
 Gradient time:  CPU 0.36 s  wall 0.36 s
 ------------------------------------------------------------------------------
                     drvman        : Timing summary (seconds)
 ------------------------------------------------------------------------------
     job step          cpu (% of tot)      sys (% of tot)     wall (% of tot)
 ------------------------------------------------------------------------------
 ------------------------------------------------------------------------------
   Grand Totals     0.3560E+00          0.0000E+00          0.3633E+00
 ------------------------------------------------------------------------------
drvman_main.C: 77: out of DrvMan  Time for this dynamics step: 2.2 s (CPU) 2.2 s (wall)

TIME STEP #3 (t = 40.000 a.u. = 0.96755 fs)
--------------------------------------
 Instantaneous Temperature = 380.4 K
 ----------------------------------------------------------------
             Standard Nuclear Orientation (Angstroms)
    I     Atom           X                Y                Z
 ----------------------------------------------------------------
    1      C       5.5125458467    -1.3618643042    -1.1311018529
    2      C       4.4353709784    -0.6259577228    -1.3629074454
    3      H       6.3390723954    -0.9702655226    -0.5419377908
    4      H       5.6166113726    -2.4101912090    -1.5079904554
    5      C       3.3285920465    -1.0869527252    -2.1785342732
    6      C       2.2152149411    -0.4109853637    -2.3085713373
    7      H       1.3982956231    -0.8124782866    -2.9446899088
    8      H       1.9980370848     0.5274162375    -1.8563699983
    9      H       4.3660283260     0.3597882430    -0.9260508495
   10      H       3.4324933979    -2.0214117653    -2.6987502939
 ----------------------------------------------------------------
 Nuclear Repulsion Energy =   104.6649078110 hartrees
 There are       15 alpha and       15 beta electrons

                       Distance Matrix (Angstroms)
             C (  1)   C (  2)   H (  3)   H (  4)   C (  5)   C (  6)
   C (  2)  1.324990
   H (  3)  1.087938  2.101575
   H (  4)  1.118867  2.144730  1.878455
   C (  5)  2.437693  1.450077  3.428565  2.726834
   C (  6)  3.628084  2.422723  4.521061  4.025823  1.308988
   H (  7)  4.529678  3.429381  5.496307  4.734024  2.094845  1.110496
   H (  8)  4.055511  2.741236  4.776544  4.673862  2.116685  1.064072
   H (  9)  2.078614  1.080438  2.410288  3.094414  2.176706  2.670478
   H ( 10)  2.686846  2.176587  3.768945  2.517822  1.074539  2.056084
             H (  7)   H (  8)   H (  9)
   H (  8)  1.827415
   H (  9)  3.775785  2.549701
   H ( 10)  2.379069  3.043648  3.111923

 Applying Cartesian multipole field
    Component          Value
    ---------          -----
     (2,0,0)        1.00000E-12
     (0,2,0)        2.00000E-11
     (0,0,2)       -3.00000E-11
 Nucleus-field energy     =    -0.0000000067 hartrees
 ENuRep (before)= 104.6649078110
 ENucField = -0.0000000067
 ENuRep (after) = 104.6649078042
 Job number = 2, Threshold = 1.00E-11
Integral type ranges set in mkLRange.C for JobNum: 2  <1-6|1-6>
Symmetry turned off temporarily
Symmetry turned back on
 Job number = 11, Threshold = 1.00E-11
Integral type ranges set in mkLRange.C for JobNum: 11  <1-6|7-7>
 Smallest overlap matrix eigenvalue = 1.75E-01
 Multipole matrices computed through 2nd order
 Guess from superposition of atomic densities
 Warning:  Energy on first SCF cycle will be non-variational
 SAD guess density has 30.000000 electrons
 SCF convergence criterion is 10**(-8)
 A restricted Hartree-Fock SCF calculation will be
 performed using Pulay DIIS extrapolation
 SCF converges when DIIS error is below 1.0E-08
Finding J and K together
 Job number = 22, Threshold = 1.00E-11
Integral type ranges set in mkLRange.C for JobNum: 22  <1-6|1-6>
 MakeJK  time:  CPU       0.10 s  wall       0.11 s
Fock build time:  0.10 s (CPU) 0.11 s (wall)
DIIS Errors:  Max 1.16E+00 RMS 2.19E-01

Current DIIS subspace size = 1
REM_GRID_RESTART_DIIS = 0

 ---------------------------------------
  Cycle       Energy         DIIS Error
 ---------------------------------------
    1    -152.7066749942      2.19E-01  00000
Finding J and K together
 Job number = 22, Threshold = 1.00E-11
Integral type ranges set in mkLRange.C for JobNum: 22  <1-6|1-6>
 MakeJK  time:  CPU       0.14 s  wall       0.14 s
Fock build time:  0.14 s (CPU) 0.14 s (wall)
DIIS Errors:  Max 6.24E-02 RMS 1.29E-02

Current DIIS subspace size = 2
REM_GRID_RESTART_DIIS = 0

    2    -152.9892826580      1.29E-02  00000
Finding J and K together
 Job number = 22, Threshold = 1.00E-11
Integral type ranges set in mkLRange.C for JobNum: 22  <1-6|1-6>
 MakeJK  time:  CPU       0.14 s  wall       0.13 s
Fock build time:  0.14 s (CPU) 0.13 s (wall)
DIIS Errors:  Max 1.87E-02 RMS 3.46E-03

Current DIIS subspace size = 3
REM_GRID_RESTART_DIIS = 0

    3    -153.0133194462      3.46E-03  00000
Finding J and K together
 Job number = 22, Threshold = 1.00E-11
Integral type ranges set in mkLRange.C for JobNum: 22  <1-6|1-6>
 MakeJK  time:  CPU       0.14 s  wall       0.13 s
Fock build time:  0.14 s (CPU) 0.13 s (wall)
DIIS Errors:  Max 6.33E-03 RMS 1.18E-03

Current DIIS subspace size = 4
REM_GRID_RESTART_DIIS = 0

    4    -153.0150589290      1.18E-03  00000
Finding J and K together
 Job number = 22, Threshold = 1.00E-11
Integral type ranges set in mkLRange.C for JobNum: 22  <1-6|1-6>
 MakeJK  time:  CPU       0.17 s  wall       0.17 s
Fock build time:  0.17 s (CPU) 0.17 s (wall)
DIIS Errors:  Max 6.15E-04 RMS 8.54E-05

Current DIIS subspace size = 5
REM_GRID_RESTART_DIIS = 0

    5    -153.0152007440      8.54E-05  00000
Finding J and K together
 Job number = 22, Threshold = 1.00E-11
Integral type ranges set in mkLRange.C for JobNum: 22  <1-6|1-6>
 MakeJK  time:  CPU       0.15 s  wall       0.15 s
Fock build time:  0.15 s (CPU) 0.15 s (wall)
DIIS Errors:  Max 1.07E-04 RMS 1.65E-05

Current DIIS subspace size = 6
REM_GRID_RESTART_DIIS = 0

    6    -153.0152031289      1.65E-05  00000
Finding J and K together
 Job number = 22, Threshold = 1.00E-11
Integral type ranges set in mkLRange.C for JobNum: 22  <1-6|1-6>
 MakeJK  time:  CPU       0.12 s  wall       0.12 s
Fock build time:  0.12 s (CPU) 0.12 s (wall)
DIIS Errors:  Max 2.43E-05 RMS 4.98E-06

Current DIIS subspace size = 7
REM_GRID_RESTART_DIIS = 0

    7    -153.0152031999      4.98E-06  00000
Finding J and K together
 Job number = 22, Threshold = 1.00E-11
Integral type ranges set in mkLRange.C for JobNum: 22  <1-6|1-6>
 MakeJK  time:  CPU       0.11 s  wall       0.11 s
Fock build time:  0.11 s (CPU) 0.11 s (wall)
DIIS Errors:  Max 4.84E-06 RMS 9.42E-07

Current DIIS subspace size = 8
REM_GRID_RESTART_DIIS = 0

    8    -153.0152032036      9.42E-07  00000
Finding J and K together
 Job number = 22, Threshold = 1.00E-11
Integral type ranges set in mkLRange.C for JobNum: 22  <1-6|1-6>
 MakeJK  time:  CPU       0.17 s  wall       0.17 s
Fock build time:  0.17 s (CPU) 0.17 s (wall)
DIIS Errors:  Max 1.23E-06 RMS 1.98E-07

Current DIIS subspace size = 9
REM_GRID_RESTART_DIIS = 0

    9    -153.0152032038      1.98E-07  00000
Finding J and K together
 Job number = 22, Threshold = 1.00E-11
Integral type ranges set in mkLRange.C for JobNum: 22  <1-6|1-6>
 MakeJK  time:  CPU       0.17 s  wall       0.18 s
Fock build time:  0.17 s (CPU) 0.18 s (wall)
DIIS Errors:  Max 4.45E-07 RMS 7.37E-08

Current DIIS subspace size = 10
REM_GRID_RESTART_DIIS = 0

   10    -153.0152032038      7.37E-08  00000
Finding J and K together
 Job number = 22, Threshold = 1.00E-11
Integral type ranges set in mkLRange.C for JobNum: 22  <1-6|1-6>
 MakeJK  time:  CPU       0.16 s  wall       0.17 s
Fock build time:  0.16 s (CPU) 0.17 s (wall)
DIIS Errors:  Max 5.41E-08 RMS 1.03E-08

Current DIIS subspace size = 11
REM_GRID_RESTART_DIIS = 0

   11    -153.0152032038      1.03E-08  00000
Finding J and K together
 Job number = 22, Threshold = 1.00E-11
Integral type ranges set in mkLRange.C for JobNum: 22  <1-6|1-6>
 MakeJK  time:  CPU       0.17 s  wall       0.18 s
Fock build time:  0.17 s (CPU) 0.18 s (wall)
DIIS Errors:  Max 1.20E-08 RMS 2.06E-09

Current DIIS subspace size = 12
REM_GRID_RESTART_DIIS = 0

   12    -153.0152032038      2.06E-09  00000 Convergence criterion met
 ---------------------------------------
 SCF time:  CPU 1.74 s  wall 1.78 s
 SCF   energy in the final basis set = -153.01520320
 Total energy in the final basis set = -153.01520320
drvman_main.C: 73: calling DrvMan  Calculating analytic gradient of the SCF energy
drvman.C : 218: Calculating analytic gradient of the SCF energy
drvman.C: 244: calling SCF_Grad for normal SCF gradient
 Job number = 111, Threshold = 1.00E-11
Integral type ranges set in mkLRange.C for JobNum: 11  <1-6|7-7>
Finding J and K together
 ML is being used
 Job number = 122, Threshold = 1.00E-11
Integral type ranges set in mkLRange.C for JobNum: 22  <1-6|1-6>
 MakeJK  time:  CPU       0.44 s  wall       0.49 s
 Gradient of SCF Energy
            1           2           3           4           5           6
    1   0.0040025  -0.0438406   0.0034604   0.0016465   0.0236421   0.0326335
    2   0.0133877   0.0135128   0.0054336  -0.0308910  -0.0068638   0.0255280
    3   0.0057640  -0.0162696   0.0015984  -0.0080261   0.0062455   0.0323446
            7           8           9          10
    1  -0.0169928  -0.0024838   0.0021825  -0.0042503
    2  -0.0102075  -0.0144150  -0.0036140   0.0081292
    3  -0.0141381  -0.0104283   0.0017524   0.0011571
 Max gradient component =       4.384E-02
 RMS gradient           =       1.642E-02
drvman.C: 248: out of SCF_Grad for normal SCF gradient
 Gradient time:  CPU 0.46 s  wall 0.51 s
 ------------------------------------------------------------------------------
                     drvman        : Timing summary (seconds)
 ------------------------------------------------------------------------------
     job step          cpu (% of tot)      sys (% of tot)     wall (% of tot)
 ------------------------------------------------------------------------------
 ------------------------------------------------------------------------------
   Grand Totals     0.4600E+00          0.3000E-05          0.5092E+00
 ------------------------------------------------------------------------------
drvman_main.C: 77: out of DrvMan  Time for this dynamics step: 2.2 s (CPU) 2.3 s (wall)

TIME STEP #4 (t = 60.000 a.u. = 1.45133 fs)
--------------------------------------
 Instantaneous Temperature = 360.9 K
 ----------------------------------------------------------------
             Standard Nuclear Orientation (Angstroms)
    I     Atom           X                Y                Z
 ----------------------------------------------------------------
    1      C       5.5100502746    -1.3584636503    -1.1344051496
    2      C       4.4367329845    -0.6252071700    -1.3616847237
    3      H       6.3434900245    -0.9663586044    -0.5551088624
    4      H       5.6112680288    -2.4149662137    -1.5044130299
    5      C       3.3259594267    -1.0854030565    -2.1799137823
    6      C       2.2200229537    -0.4158489791    -2.3037989447
    7      H       1.4024481779    -0.8194495750    -2.9427109667
    8      H       1.9858658252     0.5205589098    -1.8623372970
    9      H       4.3646277560     0.3571160733    -0.9225897730
   10      H       3.4304335955    -2.0140119545    -2.7042547246
 ----------------------------------------------------------------
 Nuclear Repulsion Energy =   104.8597326647 hartrees
 There are       15 alpha and       15 beta electrons

                       Distance Matrix (Angstroms)
             C (  1)   C (  2)   H (  3)   H (  4)   C (  5)   C (  6)
   C (  2)  1.319595
   H (  3)  1.088096  2.098254
   H (  4)  1.123988  2.145493  1.880370
   C (  5)  2.436781  1.454337  3.429235  2.728860
   C (  6)  3.616668  2.417688  4.512644  4.016968  1.298748
   H (  7)  4.520277  3.426990  5.489638  4.725308  2.086261  1.113342
   H (  8)  4.059617  2.751397  4.786299  4.678564  2.115613  1.061404
   H (  9)  2.073662  1.078407  2.408843  3.094684  2.177282  2.665435
   H ( 10)  2.686815  2.178052  3.768594  2.521195  1.071524  2.044403
             H (  7)   H (  8)   H (  9)
   H (  8)  1.817472
   H (  9)  3.773553  2.562879
   H ( 10)  2.365706  3.036388  3.109549

 Applying Cartesian multipole field
    Component          Value
    ---------          -----
     (2,0,0)        1.00000E-12
     (0,2,0)        2.00000E-11
     (0,0,2)       -3.00000E-11
 Nucleus-field energy     =    -0.0000000067 hartrees
 ENuRep (before)= 104.8597326647
 ENucField = -0.0000000067
 ENuRep (after) = 104.8597326580
 Job number = 2, Threshold = 1.00E-11
Integral type ranges set in mkLRange.C for JobNum: 2  <1-6|1-6>
Symmetry turned off temporarily
Symmetry turned back on
 Job number = 11, Threshold = 1.00E-11
Integral type ranges set in mkLRange.C for JobNum: 11  <1-6|7-7>
 Smallest overlap matrix eigenvalue = 1.71E-01
 Multipole matrices computed through 2nd order
 Guess from superposition of atomic densities
 Warning:  Energy on first SCF cycle will be non-variational
 SAD guess density has 30.000000 electrons
 SCF convergence criterion is 10**(-8)
 A restricted Hartree-Fock SCF calculation will be
 performed using Pulay DIIS extrapolation
 SCF converges when DIIS error is below 1.0E-08
Finding J and K together
 Job number = 22, Threshold = 1.00E-11
Integral type ranges set in mkLRange.C for JobNum: 22  <1-6|1-6>
 MakeJK  time:  CPU       0.13 s  wall       0.13 s
Fock build time:  0.13 s (CPU) 0.13 s (wall)
DIIS Errors:  Max 1.18E+00 RMS 2.21E-01

Current DIIS subspace size = 1
REM_GRID_RESTART_DIIS = 0

 ---------------------------------------
  Cycle       Energy         DIIS Error
 ---------------------------------------
    1    -152.7337124558      2.21E-01  00000
Finding J and K together
 Job number = 22, Threshold = 1.00E-11
Integral type ranges set in mkLRange.C for JobNum: 22  <1-6|1-6>
 MakeJK  time:  CPU       0.16 s  wall       0.16 s
Fock build time:  0.16 s (CPU) 0.16 s (wall)
DIIS Errors:  Max 6.29E-02 RMS 1.30E-02

Current DIIS subspace size = 2
REM_GRID_RESTART_DIIS = 0

    2    -152.9882284856      1.30E-02  00000
Finding J and K together
 Job number = 22, Threshold = 1.00E-11
Integral type ranges set in mkLRange.C for JobNum: 22  <1-6|1-6>
 MakeJK  time:  CPU       0.15 s  wall       0.15 s
Fock build time:  0.15 s (CPU) 0.15 s (wall)
DIIS Errors:  Max 1.87E-02 RMS 3.44E-03

Current DIIS subspace size = 3
REM_GRID_RESTART_DIIS = 0

    3    -153.0122329380      3.44E-03  00000
Finding J and K together
 Job number = 22, Threshold = 1.00E-11
Integral type ranges set in mkLRange.C for JobNum: 22  <1-6|1-6>
 MakeJK  time:  CPU       0.13 s  wall       0.13 s
Fock build time:  0.13 s (CPU) 0.13 s (wall)
DIIS Errors:  Max 6.18E-03 RMS 1.14E-03

Current DIIS subspace size = 4
REM_GRID_RESTART_DIIS = 0

    4    -153.0139538039      1.14E-03  00000
Finding J and K together
 Job number = 22, Threshold = 1.00E-11
Integral type ranges set in mkLRange.C for JobNum: 22  <1-6|1-6>
 MakeJK  time:  CPU       0.13 s  wall       0.13 s
Fock build time:  0.13 s (CPU) 0.13 s (wall)
DIIS Errors:  Max 5.86E-04 RMS 8.18E-05

Current DIIS subspace size = 5
REM_GRID_RESTART_DIIS = 0

    5    -153.0140870166      8.18E-05  00000
Finding J and K together
 Job number = 22, Threshold = 1.00E-11
Integral type ranges set in mkLRange.C for JobNum: 22  <1-6|1-6>
 MakeJK  time:  CPU       0.10 s  wall       0.11 s
Fock build time:  0.10 s (CPU) 0.11 s (wall)
DIIS Errors:  Max 1.08E-04 RMS 1.74E-05

Current DIIS subspace size = 6
REM_GRID_RESTART_DIIS = 0

    6    -153.0140891457      1.74E-05  00000
Finding J and K together
 Job number = 22, Threshold = 1.00E-11
Integral type ranges set in mkLRange.C for JobNum: 22  <1-6|1-6>
 MakeJK  time:  CPU       0.12 s  wall       0.13 s
Fock build time:  0.12 s (CPU) 0.13 s (wall)
DIIS Errors:  Max 2.57E-05 RMS 5.16E-06

Current DIIS subspace size = 7
REM_GRID_RESTART_DIIS = 0

    7    -153.0140892189      5.16E-06  00000
Finding J and K together
 Job number = 22, Threshold = 1.00E-11
Integral type ranges set in mkLRange.C for JobNum: 22  <1-6|1-6>
 MakeJK  time:  CPU       0.13 s  wall       0.13 s
Fock build time:  0.13 s (CPU) 0.13 s (wall)
DIIS Errors:  Max 4.93E-06 RMS 9.47E-07

Current DIIS subspace size = 8
REM_GRID_RESTART_DIIS = 0

    8    -153.0140892231      9.47E-07  00000
Finding J and K together
 Job number = 22, Threshold = 1.00E-11
Integral type ranges set in mkLRange.C for JobNum: 22  <1-6|1-6>
 MakeJK  time:  CPU       0.16 s  wall       0.17 s
Fock build time:  0.16 s (CPU) 0.17 s (wall)
DIIS Errors:  Max 1.30E-06 RMS 2.20E-07

Current DIIS subspace size = 9
REM_GRID_RESTART_DIIS = 0

    9    -153.0140892233      2.20E-07  00000
Finding J and K together
 Job number = 22, Threshold = 1.00E-11
Integral type ranges set in mkLRange.C for JobNum: 22  <1-6|1-6>
 MakeJK  time:  CPU       0.17 s  wall       0.17 s
Fock build time:  0.17 s (CPU) 0.17 s (wall)
DIIS Errors:  Max 4.21E-07 RMS 7.48E-08

Current DIIS subspace size = 10
REM_GRID_RESTART_DIIS = 0

   10    -153.0140892233      7.48E-08  00000
Finding J and K together
 Job number = 22, Threshold = 1.00E-11
Integral type ranges set in mkLRange.C for JobNum: 22  <1-6|1-6>
 MakeJK  time:  CPU       0.16 s  wall       0.16 s
Fock build time:  0.16 s (CPU) 0.16 s (wall)
DIIS Errors:  Max 5.07E-08 RMS 9.12E-09

Current DIIS subspace size = 11
REM_GRID_RESTART_DIIS = 0

   11    -153.0140892233      9.12E-09  00000 Convergence criterion met
 ---------------------------------------
 SCF time:  CPU 1.56 s  wall 1.57 s
 SCF   energy in the final basis set = -153.01408922
 Total energy in the final basis set = -153.01408922
drvman_main.C: 73: calling DrvMan  Calculating analytic gradient of the SCF energy
drvman.C : 218: Calculating analytic gradient of the SCF energy
drvman.C: 244: calling SCF_Grad for normal SCF gradient
 Job number = 111, Threshold = 1.00E-11
Integral type ranges set in mkLRange.C for JobNum: 11  <1-6|7-7>
Finding J and K together
 ML is being used
 Job number = 122, Threshold = 1.00E-11
Integral type ranges set in mkLRange.C for JobNum: 22  <1-6|1-6>
 MakeJK  time:  CPU       0.41 s  wall       0.41 s
 Gradient of SCF Energy
            1           2           3           4           5           6
    1  -0.0032410  -0.0353133   0.0039199   0.0018522   0.0074207   0.0504906
    2   0.0216348   0.0121465   0.0054910  -0.0348580  -0.0025703   0.0201819
    3   0.0051694  -0.0122468   0.0009418  -0.0082973   0.0001696   0.0384574
            7           8           9          10
    1  -0.0187116  -0.0035407   0.0019501  -0.0048269
    2  -0.0104500  -0.0166957  -0.0056357   0.0107557
    3  -0.0151088  -0.0128713   0.0015754   0.0022107
 Max gradient component =       5.049E-02
 RMS gradient           =       1.752E-02
drvman.C: 248: out of SCF_Grad for normal SCF gradient
 Gradient time:  CPU 0.42 s  wall 0.42 s
 ------------------------------------------------------------------------------
                     drvman        : Timing summary (seconds)
 ------------------------------------------------------------------------------
     job step          cpu (% of tot)      sys (% of tot)     wall (% of tot)
 ------------------------------------------------------------------------------
 ------------------------------------------------------------------------------
   Grand Totals     0.4200E+00          0.1000E-05          0.4196E+00
 ------------------------------------------------------------------------------
drvman_main.C: 77: out of DrvMan  Time for this dynamics step: 2.0 s (CPU) 2.0 s (wall)

TIME STEP #5 (t = 80.000 a.u. = 1.93511 fs)
--------------------------------------
 Instantaneous Temperature = 337.7 K
 ----------------------------------------------------------------
             Standard Nuclear Orientation (Angstroms)
    I     Atom           X                Y                Z
 ----------------------------------------------------------------
    1      C       5.5075860642    -1.3552723459    -1.1377584680
    2      C       4.4384367008    -0.6245741528    -1.3603434950
    3      H       6.3474560199    -0.9630843339    -0.5683884485
    4      H       5.6057112790    -2.4157250086    -1.4998796262
    5      C       3.3232550005    -1.0838285159    -2.1812949322
    6      C       2.2243423920    -0.4209078852    -2.2993986859
    7      H       1.4087566124    -0.8252168554    -2.9389912405
    8      H       1.9741025149     0.5156252022    -1.8668216148
    9      H       4.3630025056     0.3550932273    -0.9193102089
   10      H       3.4289299264    -2.0078513762    -2.7100138598
 ----------------------------------------------------------------
 Nuclear Repulsion Energy =   105.0611401060 hartrees
 There are       15 alpha and       15 beta electrons

                       Distance Matrix (Angstroms)
             C (  1)   C (  2)   H (  3)   H (  4)   C (  5)   C (  6)
   C (  2)  1.313980
   H (  3)  1.087831  2.094311
   H (  4)  1.124864  2.142480  1.878304
   C (  5)  2.435971  1.458940  3.429554  2.729081
   C (  6)  3.605847  2.413611  4.504489  4.006517  1.288806
   H (  7)  4.508414  3.422185  5.479919  4.713299  2.075160  1.112531
   H (  8)  4.064148  2.762158  4.795699  4.681457  2.115977  1.061526
   H (  9)  2.069575  1.077009  2.408069  3.091734  2.178113  2.660956
   H ( 10)  2.686756  2.180406  3.767744  2.523720  1.069827  2.034214
             H (  7)   H (  8)   H (  9)
   H (  8)  1.807490
   H (  9)  3.768264  2.574955
   H ( 10)  2.352053  3.032397  3.108475

 Applying Cartesian multipole field
    Component          Value
    ---------          -----
     (2,0,0)        1.00000E-12
     (0,2,0)        2.00000E-11
     (0,0,2)       -3.00000E-11
 Nucleus-field energy     =    -0.0000000067 hartrees
 ENuRep (before)= 105.0611401060
 ENucField = -0.0000000067
 ENuRep (after) = 105.0611400993
 Job number = 2, Threshold = 1.00E-11
Integral type ranges set in mkLRange.C for JobNum: 2  <1-6|1-6>
Symmetry turned off temporarily
Symmetry turned back on
 Job number = 11, Threshold = 1.00E-11
Integral type ranges set in mkLRange.C for JobNum: 11  <1-6|7-7>
 Smallest overlap matrix eigenvalue = 1.68E-01
 Multipole matrices computed through 2nd order
 Guess from superposition of atomic densities
 Warning:  Energy on first SCF cycle will be non-variational
 SAD guess density has 30.000000 electrons
 SCF convergence criterion is 10**(-8)
 A restricted Hartree-Fock SCF calculation will be
 performed using Pulay DIIS extrapolation
 SCF converges when DIIS error is below 1.0E-08
Finding J and K together
 Job number = 22, Threshold = 1.00E-11
Integral type ranges set in mkLRange.C for JobNum: 22  <1-6|1-6>
 MakeJK  time:  CPU       0.08 s  wall       0.09 s
Fock build time:  0.09 s (CPU) 0.09 s (wall)
DIIS Errors:  Max 1.20E+00 RMS 2.23E-01

Current DIIS subspace size = 1
REM_GRID_RESTART_DIIS = 0

 ---------------------------------------
  Cycle       Energy         DIIS Error
 ---------------------------------------
    1    -152.7631845254      2.23E-01  00000
Finding J and K together
 Job number = 22, Threshold = 1.00E-11
Integral type ranges set in mkLRange.C for JobNum: 22  <1-6|1-6>
 MakeJK  time:  CPU       0.14 s  wall       0.17 s
Fock build time:  0.14 s (CPU) 0.17 s (wall)
DIIS Errors:  Max 6.34E-02 RMS 1.30E-02

Current DIIS subspace size = 2
REM_GRID_RESTART_DIIS = 0

    2    -152.9872683627      1.30E-02  00000
Finding J and K together
 Job number = 22, Threshold = 1.00E-11
Integral type ranges set in mkLRange.C for JobNum: 22  <1-6|1-6>
 MakeJK  time:  CPU       0.18 s  wall       0.19 s
Fock build time:  0.18 s (CPU) 0.19 s (wall)
DIIS Errors:  Max 1.87E-02 RMS 3.43E-03

Current DIIS subspace size = 3
REM_GRID_RESTART_DIIS = 0

    3    -153.0112306735      3.43E-03  00000
Finding J and K together
 Job number = 22, Threshold = 1.00E-11
Integral type ranges set in mkLRange.C for JobNum: 22  <1-6|1-6>
 MakeJK  time:  CPU       0.16 s  wall       0.19 s
Fock build time:  0.16 s (CPU) 0.19 s (wall)
DIIS Errors:  Max 6.04E-03 RMS 1.12E-03

Current DIIS subspace size = 4
REM_GRID_RESTART_DIIS = 0

    4    -153.0129322864      1.12E-03  00000
Finding J and K together
 Job number = 22, Threshold = 1.00E-11
Integral type ranges set in mkLRange.C for JobNum: 22  <1-6|1-6>
 MakeJK  time:  CPU       0.15 s  wall       0.16 s
Fock build time:  0.15 s (CPU) 0.16 s (wall)
DIIS Errors:  Max 5.58E-04 RMS 7.83E-05

Current DIIS subspace size = 5
REM_GRID_RESTART_DIIS = 0

    5    -153.0130585817      7.83E-05  00000
Finding J and K together
 Job number = 22, Threshold = 1.00E-11
Integral type ranges set in mkLRange.C for JobNum: 22  <1-6|1-6>
 MakeJK  time:  CPU       0.16 s  wall       0.16 s
Fock build time:  0.16 s (CPU) 0.16 s (wall)
DIIS Errors:  Max 1.08E-04 RMS 1.78E-05

Current DIIS subspace size = 6
REM_GRID_RESTART_DIIS = 0

    6    -153.0130604789      1.78E-05  00000
Finding J and K together
 Job number = 22, Threshold = 1.00E-11
Integral type ranges set in mkLRange.C for JobNum: 22  <1-6|1-6>
 MakeJK  time:  CPU       0.10 s  wall       0.10 s
Fock build time:  0.10 s (CPU) 0.10 s (wall)
DIIS Errors:  Max 2.55E-05 RMS 5.13E-06

Current DIIS subspace size = 7
REM_GRID_RESTART_DIIS = 0

    7    -153.0130605516      5.13E-06  00000
Finding J and K together
 Job number = 22, Threshold = 1.00E-11
Integral type ranges set in mkLRange.C for JobNum: 22  <1-6|1-6>
 MakeJK  time:  CPU       0.14 s  wall       0.14 s
Fock build time:  0.14 s (CPU) 0.14 s (wall)
DIIS Errors:  Max 4.72E-06 RMS 9.24E-07

Current DIIS subspace size = 8
REM_GRID_RESTART_DIIS = 0

    8    -153.0130605559      9.24E-07  00000
Finding J and K together
 Job number = 22, Threshold = 1.00E-11
Integral type ranges set in mkLRange.C for JobNum: 22  <1-6|1-6>
 MakeJK  time:  CPU       0.17 s  wall       0.18 s
Fock build time:  0.17 s (CPU) 0.18 s (wall)
DIIS Errors:  Max 1.20E-06 RMS 2.24E-07

Current DIIS subspace size = 9
REM_GRID_RESTART_DIIS = 0

    9    -153.0130605560      2.24E-07  00000
Finding J and K together
 Job number = 22, Threshold = 1.00E-11
Integral type ranges set in mkLRange.C for JobNum: 22  <1-6|1-6>
 MakeJK  time:  CPU       0.17 s  wall       0.17 s
Fock build time:  0.17 s (CPU) 0.17 s (wall)
DIIS Errors:  Max 3.48E-07 RMS 6.97E-08

Current DIIS subspace size = 10
REM_GRID_RESTART_DIIS = 0

   10    -153.0130605561      6.97E-08  00000
Finding J and K together
 Job number = 22, Threshold = 1.00E-11
Integral type ranges set in mkLRange.C for JobNum: 22  <1-6|1-6>
 MakeJK  time:  CPU       0.17 s  wall       0.17 s
Fock build time:  0.17 s (CPU) 0.17 s (wall)
DIIS Errors:  Max 4.15E-08 RMS 7.41E-09

Current DIIS subspace size = 11
REM_GRID_RESTART_DIIS = 0

   11    -153.0130605561      7.41E-09  00000 Convergence criterion met
 ---------------------------------------
 SCF time:  CPU 1.64 s  wall 1.73 s
 SCF   energy in the final basis set = -153.01306056
 Total energy in the final basis set = -153.01306056
drvman_main.C: 73: calling DrvMan  Calculating analytic gradient of the SCF energy
drvman.C : 218: Calculating analytic gradient of the SCF energy
drvman.C: 244: calling SCF_Grad for normal SCF gradient
 Job number = 111, Threshold = 1.00E-11
Integral type ranges set in mkLRange.C for JobNum: 11  <1-6|7-7>
Finding J and K together
 ML is being used
 Job number = 122, Threshold = 1.00E-11
Integral type ranges set in mkLRange.C for JobNum: 22  <1-6|1-6>
 MakeJK  time:  CPU       0.40 s  wall       0.40 s
 Gradient of SCF Energy
            1           2           3           4           5           6
    1  -0.0104468  -0.0259187   0.0041270   0.0017908  -0.0095898   0.0669373
    2   0.0273204   0.0098655   0.0053752  -0.0357736   0.0031151   0.0111116
    3   0.0036032  -0.0082024   0.0001068  -0.0074812  -0.0053431   0.0415253
            7           8           9          10
    1  -0.0182428  -0.0050286   0.0016009  -0.0052292
    2  -0.0096915  -0.0165027  -0.0071129   0.0122931
    3  -0.0144262  -0.0140541   0.0015506   0.0027212
 Max gradient component =       6.694E-02
 RMS gradient           =       1.908E-02
drvman.C: 248: out of SCF_Grad for normal SCF gradient
 Gradient time:  CPU 0.42 s  wall 0.42 s
 ------------------------------------------------------------------------------
                     drvman        : Timing summary (seconds)
 ------------------------------------------------------------------------------
     job step          cpu (% of tot)      sys (% of tot)     wall (% of tot)
 ------------------------------------------------------------------------------
 ------------------------------------------------------------------------------
   Grand Totals     0.4200E+00          0.1000E-05          0.4240E+00
 ------------------------------------------------------------------------------
drvman_main.C: 77: out of DrvMan  Time for this dynamics step: 2.1 s (CPU) 2.2 s (wall)

TIME STEP #6 (t = 100.000 a.u. = 2.41888 fs)
--------------------------------------
 Instantaneous Temperature = 316.2 K
 ----------------------------------------------------------------
             Standard Nuclear Orientation (Angstroms)
    I     Atom           X                Y                Z
 ----------------------------------------------------------------
    1      C       5.5052229426    -1.3523454078    -1.1411466525
    2      C       4.4403912206    -0.6240365999    -1.3589228952
    3      H       6.3509465202    -0.9604293719    -0.5816803380
    4      H       5.5999481995    -2.4123620979    -1.4944842615
    5      C       3.3206433704    -1.0822841185    -2.1826243796
    6      C       2.2280141094    -0.4260743128    -2.2954002481
    7      H       1.4171669142    -0.8298675130    -2.9336093873
    8      H       1.9629185799     0.5125928775    -1.8696866684
    9      H       4.3611928069     0.3538899024    -0.9162093045
   10      H       3.4280287509    -2.0031071586    -2.7160865171
 ----------------------------------------------------------------
 Nuclear Repulsion Energy =   105.2640541168 hartrees
 There are       15 alpha and       15 beta electrons

                       Distance Matrix (Angstroms)
             C (  1)   C (  2)   H (  3)   H (  4)   C (  5)   C (  6)
   C (  2)  1.308330
   H (  3)  1.087129  2.089853
   H (  4)  1.121363  2.135663  1.872249
   C (  5)  2.435158  1.463663  3.429374  2.727247
   C (  6)  3.595883  2.410558  4.496770  3.994589  1.279519
   H (  7)  4.494231  3.414951  5.467248  4.697981  2.061775  1.108076
   H (  8)  4.068991  2.773207  4.804534  4.682320  2.117777  1.064239
   H (  9)  2.066553  1.076387  2.408000  3.085623  2.179254  2.657247
   H ( 10)  2.686757  2.183714  3.766472  2.525279  1.069593  2.025844
             H (  7)   H (  8)   H (  9)
   H (  8)  1.797770
   H (  9)  3.760116  2.585735
   H ( 10)  2.338241  3.031780  3.108985

 Applying Cartesian multipole field
    Component          Value
    ---------          -----
     (2,0,0)        1.00000E-12
     (0,2,0)        2.00000E-11
     (0,0,2)       -3.00000E-11
 Nucleus-field energy     =    -0.0000000067 hartrees
 ENuRep (before)= 105.2640541168
 ENucField = -0.0000000067
 ENuRep (after) = 105.2640541100
 Job number = 2, Threshold = 1.00E-11
Integral type ranges set in mkLRange.C for JobNum: 2  <1-6|1-6>
Symmetry turned off temporarily
Symmetry turned back on
 Job number = 11, Threshold = 1.00E-11
Integral type ranges set in mkLRange.C for JobNum: 11  <1-6|7-7>
 Smallest overlap matrix eigenvalue = 1.64E-01
 Multipole matrices computed through 2nd order
 Guess from superposition of atomic densities
 Warning:  Energy on first SCF cycle will be non-variational
 SAD guess density has 30.000000 electrons
 SCF convergence criterion is 10**(-8)
 A restricted Hartree-Fock SCF calculation will be
 performed using Pulay DIIS extrapolation
 SCF converges when DIIS error is below 1.0E-08
Finding J and K together
 Job number = 22, Threshold = 1.00E-11
Integral type ranges set in mkLRange.C for JobNum: 22  <1-6|1-6>
 MakeJK  time:  CPU       0.13 s  wall       0.13 s
Fock build time:  0.13 s (CPU) 0.13 s (wall)
DIIS Errors:  Max 1.22E+00 RMS 2.25E-01

Current DIIS subspace size = 1
REM_GRID_RESTART_DIIS = 0

 ---------------------------------------
  Cycle       Energy         DIIS Error
 ---------------------------------------
    1    -152.7942584737      2.25E-01  00000
Finding J and K together
 Job number = 22, Threshold = 1.00E-11
Integral type ranges set in mkLRange.C for JobNum: 22  <1-6|1-6>
 MakeJK  time:  CPU       0.17 s  wall       0.17 s
Fock build time:  0.17 s (CPU) 0.17 s (wall)
DIIS Errors:  Max 6.39E-02 RMS 1.30E-02

Current DIIS subspace size = 2
REM_GRID_RESTART_DIIS = 0

    2    -152.9864840368      1.30E-02  00000
Finding J and K together
 Job number = 22, Threshold = 1.00E-11
Integral type ranges set in mkLRange.C for JobNum: 22  <1-6|1-6>
 MakeJK  time:  CPU       0.17 s  wall       0.17 s
Fock build time:  0.17 s (CPU) 0.17 s (wall)
DIIS Errors:  Max 1.87E-02 RMS 3.42E-03

Current DIIS subspace size = 3
REM_GRID_RESTART_DIIS = 0

    3    -153.0103938912      3.42E-03  00000
Finding J and K together
 Job number = 22, Threshold = 1.00E-11
Integral type ranges set in mkLRange.C for JobNum: 22  <1-6|1-6>
 MakeJK  time:  CPU       0.17 s  wall       0.17 s
Fock build time:  0.17 s (CPU) 0.17 s (wall)
DIIS Errors:  Max 5.91E-03 RMS 1.10E-03

Current DIIS subspace size = 4
REM_GRID_RESTART_DIIS = 0

    4    -153.0120762923      1.10E-03  00000
Finding J and K together
 Job number = 22, Threshold = 1.00E-11
Integral type ranges set in mkLRange.C for JobNum: 22  <1-6|1-6>
 MakeJK  time:  CPU       0.12 s  wall       0.13 s
Fock build time:  0.12 s (CPU) 0.13 s (wall)
DIIS Errors:  Max 5.31E-04 RMS 7.51E-05

Current DIIS subspace size = 5
REM_GRID_RESTART_DIIS = 0

    5    -153.0121976582      7.51E-05  00000
Finding J and K together
 Job number = 22, Threshold = 1.00E-11
Integral type ranges set in mkLRange.C for JobNum: 22  <1-6|1-6>
 MakeJK  time:  CPU       0.17 s  wall       0.17 s
Fock build time:  0.17 s (CPU) 0.17 s (wall)
DIIS Errors:  Max 1.05E-04 RMS 1.77E-05

Current DIIS subspace size = 6
REM_GRID_RESTART_DIIS = 0

    6    -153.0121993531      1.77E-05  00000
Finding J and K together
 Job number = 22, Threshold = 1.00E-11
Integral type ranges set in mkLRange.C for JobNum: 22  <1-6|1-6>
 MakeJK  time:  CPU       0.17 s  wall       0.17 s
Fock build time:  0.17 s (CPU) 0.17 s (wall)
DIIS Errors:  Max 2.41E-05 RMS 5.01E-06

Current DIIS subspace size = 7
REM_GRID_RESTART_DIIS = 0

    7    -153.0121994227      5.01E-06  00000
Finding J and K together
 Job number = 22, Threshold = 1.00E-11
Integral type ranges set in mkLRange.C for JobNum: 22  <1-6|1-6>
 MakeJK  time:  CPU       0.17 s  wall       0.18 s
Fock build time:  0.17 s (CPU) 0.18 s (wall)
DIIS Errors:  Max 4.20E-06 RMS 8.75E-07

Current DIIS subspace size = 8
REM_GRID_RESTART_DIIS = 0

    8    -153.0121994269      8.75E-07  00000
Finding J and K together
 Job number = 22, Threshold = 1.00E-11
Integral type ranges set in mkLRange.C for JobNum: 22  <1-6|1-6>
 MakeJK  time:  CPU       0.16 s  wall       0.17 s
Fock build time:  0.17 s (CPU) 0.17 s (wall)
DIIS Errors:  Max 1.25E-06 RMS 2.16E-07

Current DIIS subspace size = 9
REM_GRID_RESTART_DIIS = 0

    9    -153.0121994271      2.16E-07  00000
Finding J and K together
 Job number = 22, Threshold = 1.00E-11
Integral type ranges set in mkLRange.C for JobNum: 22  <1-6|1-6>
 MakeJK  time:  CPU       0.17 s  wall       0.17 s
Fock build time:  0.17 s (CPU) 0.17 s (wall)
DIIS Errors:  Max 3.47E-07 RMS 6.25E-08

Current DIIS subspace size = 10
REM_GRID_RESTART_DIIS = 0

   10    -153.0121994271      6.25E-08  00000
Finding J and K together
 Job number = 22, Threshold = 1.00E-11
Integral type ranges set in mkLRange.C for JobNum: 22  <1-6|1-6>
 MakeJK  time:  CPU       0.17 s  wall       0.17 s
Fock build time:  0.17 s (CPU) 0.17 s (wall)
DIIS Errors:  Max 2.75E-08 RMS 5.42E-09

Current DIIS subspace size = 11
REM_GRID_RESTART_DIIS = 0

   11    -153.0121994271      5.42E-09  00000 Convergence criterion met
 ---------------------------------------
 SCF time:  CPU 1.78 s  wall 1.81 s
 SCF   energy in the final basis set = -153.01219943
 Total energy in the final basis set = -153.01219943
drvman_main.C: 73: calling DrvMan  Calculating analytic gradient of the SCF energy
drvman.C : 218: Calculating analytic gradient of the SCF energy
drvman.C: 244: calling SCF_Grad for normal SCF gradient
 Job number = 111, Threshold = 1.00E-11
Integral type ranges set in mkLRange.C for JobNum: 11  <1-6|7-7>
Finding J and K together
 ML is being used
 Job number = 122, Threshold = 1.00E-11
Integral type ranges set in mkLRange.C for JobNum: 22  <1-6|1-6>
 MakeJK  time:  CPU       0.44 s  wall       0.44 s
 Gradient of SCF Energy
            1           2           3           4           5           6
    1  -0.0173997  -0.0160085   0.0040575   0.0014705  -0.0266597   0.0813803
    2   0.0302298   0.0066385   0.0050890  -0.0335589   0.0099957  -0.0011109
    3   0.0011552  -0.0043426  -0.0008975  -0.0056350  -0.0100219   0.0415920
            7           8           9          10
    1  -0.0155708  -0.0069609   0.0011386  -0.0054474
    2  -0.0079672  -0.0140072  -0.0079089   0.0126001
    3  -0.0120956  -0.0140805   0.0017437   0.0025823
 Max gradient component =       8.138E-02
 RMS gradient           =       2.095E-02
drvman.C: 248: out of SCF_Grad for normal SCF gradient
 Gradient time:  CPU 0.46 s  wall 0.46 s
 ------------------------------------------------------------------------------
                     drvman        : Timing summary (seconds)
 ------------------------------------------------------------------------------
     job step          cpu (% of tot)      sys (% of tot)     wall (% of tot)
 ------------------------------------------------------------------------------
 ------------------------------------------------------------------------------
   Grand Totals     0.4560E+00          0.2000E-05          0.4616E+00
 ------------------------------------------------------------------------------
drvman_main.C: 77: out of DrvMan  Time for this dynamics step: 2.3 s (CPU) 2.3 s (wall)

TIME STEP #7 (t = 120.000 a.u. = 2.90266 fs)
--------------------------------------
 Instantaneous Temperature = 297.9 K
 ----------------------------------------------------------------
             Standard Nuclear Orientation (Angstroms)
    I     Atom           X                Y                Z
 ----------------------------------------------------------------
    1      C       5.5030281899    -1.3497109892    -1.1445460150
    2      C       4.4425006471    -0.6235632846    -1.3574602738
    3      H       6.3539695300    -0.9583607437    -0.5948688162
    4      H       5.5940156889    -2.4051326565    -1.4884396536
    5      C       3.3182897139    -1.0808364450    -2.1838568494
    6      C       2.2308983472    -0.4312299907    -2.2918042762
    7      H       1.4273712310    -0.8336002213    -2.9268339238
    8      H       1.9525366479     0.5111744076    -1.8709294179
    9      H       4.3592519181     0.3535978080    -0.9133093063
   10      H       3.4277552057    -1.9998146732    -2.7224567025
 ----------------------------------------------------------------
 Nuclear Repulsion Energy =   105.4631751453 hartrees
 There are       15 alpha and       15 beta electrons

                       Distance Matrix (Angstroms)
             C (  1)   C (  2)   H (  3)   H (  4)   C (  5)   C (  6)
   C (  2)  1.302821
   H (  3)  1.086002  2.085030
   H (  4)  1.113758  2.125355  1.862565
   C (  5)  2.434244  1.468292  3.428591  2.723287
   C (  6)  3.587010  2.408563  4.489674  3.981488  1.271244
   H (  7)  4.478158  3.405592  5.452064  4.679703  2.046635  1.100373
   H (  8)  4.073882  2.784098  4.812533  4.680974  2.120779  1.068993
   H (  9)  2.064693  1.076589  2.408638  3.076688  2.180710  2.654448
   H ( 10)  2.686856  2.187919  3.764836  2.525820  1.070791  2.019501
             H (  7)   H (  8)   H (  9)
   H (  8)  1.788617
   H (  9)  3.749619  2.595023
   H ( 10)  2.324513  3.034211  3.111149

 Applying Cartesian multipole field
    Component          Value
    ---------          -----
     (2,0,0)        1.00000E-12
     (0,2,0)        2.00000E-11
     (0,0,2)       -3.00000E-11
 Nucleus-field energy     =    -0.0000000067 hartrees
 ENuRep (before)= 105.4631751453
 ENucField = -0.0000000067
 ENuRep (after) = 105.4631751385
 Job number = 2, Threshold = 1.00E-11
Integral type ranges set in mkLRange.C for JobNum: 2  <1-6|1-6>
Symmetry turned off temporarily
Symmetry turned back on
 Job number = 11, Threshold = 1.00E-11
Integral type ranges set in mkLRange.C for JobNum: 11  <1-6|7-7>
 Smallest overlap matrix eigenvalue = 1.61E-01
 Multipole matrices computed through 2nd order
 Guess from superposition of atomic densities
 Warning:  Energy on first SCF cycle will be non-variational
 SAD guess density has 30.000000 electrons
 SCF convergence criterion is 10**(-8)
 A restricted Hartree-Fock SCF calculation will be
 performed using Pulay DIIS extrapolation
[...]
 Total energy in the final basis set = -153.01111586
drvman_main.C: 73: calling DrvMan  Calculating analytic gradient of the SCF energy
drvman.C : 218: Calculating analytic gradient of the SCF energy
drvman.C: 244: calling SCF_Grad for normal SCF gradient
 Job number = 111, Threshold = 1.00E-11
Integral type ranges set in mkLRange.C for JobNum: 11  <1-6|7-7>
Finding J and K together
 ML is being used
 Job number = 122, Threshold = 1.00E-11
Integral type ranges set in mkLRange.C for JobNum: 22  <1-6|1-6>
 MakeJK  time:  CPU       0.34 s  wall       0.33 s
 Gradient of SCF Energy
            1           2           3           4           5           6
    1   0.0265936  -0.0391784   0.0057237   0.0047188   0.0459145  -0.0306649
    2   0.0015354   0.0012425   0.0094072  -0.0107767   0.0046782   0.0116073
    3  -0.0014690   0.0340118  -0.0006225  -0.0209175  -0.0362652   0.0312046
            7           8           9          10
    1  -0.0264436   0.0052729   0.0024370   0.0056263
    2  -0.0146508  -0.0011140   0.0003217  -0.0022507
    3  -0.0008067  -0.0055672   0.0063884  -0.0059567
 Max gradient component =       4.591E-02
 RMS gradient           =       1.888E-02
drvman.C: 248: out of SCF_Grad for normal SCF gradient
 Gradient time:  CPU 0.35 s  wall 0.35 s
 ------------------------------------------------------------------------------
                     drvman        : Timing summary (seconds)
 ------------------------------------------------------------------------------
     job step          cpu (% of tot)      sys (% of tot)     wall (% of tot)
 ------------------------------------------------------------------------------
 ------------------------------------------------------------------------------
   Grand Totals     0.3480E+00          0.0000E+00          0.3470E+00
 ------------------------------------------------------------------------------
drvman_main.C: 77: out of DrvMan  Time for this dynamics step: 1.9 s (CPU) 1.9 s (wall)

TIME STEP #399 (t = 7960.000 a.u. = 192.54319 fs)
--------------------------------------
 Instantaneous Temperature = 274.9 K
 ----------------------------------------------------------------
             Standard Nuclear Orientation (Angstroms)
    I     Atom           X                Y                Z
 ----------------------------------------------------------------
    1      C       5.6300061350    -0.4082264162    -1.9988131288
    2      C       4.4365097839    -0.5256850170    -1.4024255436
    3      H       6.4433149158     0.1830821590    -1.5785166745
    4      H       5.8362017286    -0.8549528780    -3.0023213366
    5      C       3.3124931176    -1.2392238848    -2.0907224833
    6      C       2.1011333674    -1.3233580909    -1.4911634584
    7      H       1.1996830958    -1.8851527991    -1.8543116633
    8      H       1.9923246186    -0.8426460323    -0.5393425738
    9      H       4.2712506396    -0.1108971286    -0.4156702762
   10      H       3.5456603716    -1.6887767753    -3.0616976745
 ----------------------------------------------------------------
 Nuclear Repulsion Energy =   102.9065016638 hartrees
 There are       15 alpha and       15 beta electrons

                       Distance Matrix (Angstroms)
             C (  1)   C (  2)   H (  3)   H (  4)   C (  5)   C (  6)
   C (  2)  1.339369
   H (  3)  1.089847  2.135562
   H (  4)  1.117636  2.151098  1.863685
   C (  5)  2.463711  1.498767  3.476687  2.710679
   C (  6)  3.680777  2.469441  4.596905  4.056321  1.354231
   H (  7)  4.672254  3.539689  5.643521  4.886363  2.221954  1.122543
   H (  8)  3.943539  2.611401  4.684369  4.565283  2.075307  1.071861
   H (  9)  2.107359  1.083072  2.481229  3.113431  2.235651  2.708534
   H ( 10)  2.667214  2.213499  3.755008  2.438312  1.095106  2.164894
             H (  7)   H (  8)   H (  9)
   H (  8)  1.855868
   H (  9)  3.827819  2.396718
   H ( 10)  2.645743  3.080757  3.165067

 Applying Cartesian multipole field
    Component          Value
    ---------          -----
     (2,0,0)        1.00000E-12
     (0,2,0)        2.00000E-11
     (0,0,2)       -3.00000E-11
 Nucleus-field energy     =    -0.0000000067 hartrees
 ENuRep (before)= 102.9065016638
 ENucField = -0.0000000067
 ENuRep (after) = 102.9065016571
 Job number = 2, Threshold = 1.00E-11
Integral type ranges set in mkLRange.C for JobNum: 2  <1-6|1-6>
Symmetry turned off temporarily
Symmetry turned back on
 Job number = 11, Threshold = 1.00E-11
Integral type ranges set in mkLRange.C for JobNum: 11  <1-6|7-7>
 Smallest overlap matrix eigenvalue = 1.90E-01
 Multipole matrices computed through 2nd order
 Extrapolating the Fock matrix using 12 points and a 6th-order polynomial
 Alpha Fock matrix extrapolation
 Skip SCF guess (diagonalize extrapolated Fock matrix instead)
 SCF convergence criterion is 10**(-8)
 A restricted Hartree-Fock SCF calculation will be
 performed using Pulay DIIS extrapolation
 SCF converges when DIIS error is below 1.0E-08
Extrapolated Fock matrix used in lieu of Fock build
Fock build time:  0.00 s (CPU) 0.00 s (wall)
DIIS Errors:  Max 1.24E-02 RMS 1.90E-03

Current DIIS subspace size = 1
REM_GRID_RESTART_DIIS = 0

 ---------------------------------------
  Cycle       Energy         DIIS Error
 ---------------------------------------
    1    -307.4255632364      1.90E-03  00000
Finding J and K together
 Job number = 22, Threshold = 1.00E-11
Integral type ranges set in mkLRange.C for JobNum: 22  <1-6|1-6>
 MakeJK  time:  CPU       0.18 s  wall       0.18 s
Fock build time:  0.18 s (CPU) 0.18 s (wall)
DIIS Errors:  Max 3.68E-03 RMS 3.66E-04

Current DIIS subspace size = 2
REM_GRID_RESTART_DIIS = 0

    2    -153.0105605805      3.66E-04  00000
Finding J and K together
 Job number = 22, Threshold = 1.00E-11
Integral type ranges set in mkLRange.C for JobNum: 22  <1-6|1-6>
 MakeJK  time:  CPU       0.20 s  wall       0.20 s
Fock build time:  0.20 s (CPU) 0.20 s (wall)
DIIS Errors:  Max 3.91E-04 RMS 4.10E-05

Current DIIS subspace size = 3
REM_GRID_RESTART_DIIS = 0

    3    -153.0105628180      4.10E-05  00000
Finding J and K together
 Job number = 22, Threshold = 1.00E-11
Integral type ranges set in mkLRange.C for JobNum: 22  <1-6|1-6>
 MakeJK  time:  CPU       0.20 s  wall       0.19 s
Fock build time:  0.20 s (CPU) 0.19 s (wall)
DIIS Errors:  Max 1.74E-05 RMS 2.65E-06

Current DIIS subspace size = 4
REM_GRID_RESTART_DIIS = 0

    4    -153.0105628602      2.65E-06  00000
Finding J and K together
 Job number = 22, Threshold = 1.00E-11
Integral type ranges set in mkLRange.C for JobNum: 22  <1-6|1-6>
 MakeJK  time:  CPU       0.17 s  wall       0.17 s
Fock build time:  0.17 s (CPU) 0.17 s (wall)
DIIS Errors:  Max 8.52E-06 RMS 1.45E-06

Current DIIS subspace size = 5
REM_GRID_RESTART_DIIS = 0

    5    -153.0105628611      1.45E-06  00000
Finding J and K together
 Job number = 22, Threshold = 1.00E-11
Integral type ranges set in mkLRange.C for JobNum: 22  <1-6|1-6>
 MakeJK  time:  CPU       0.14 s  wall       0.13 s
Fock build time:  0.14 s (CPU) 0.14 s (wall)
DIIS Errors:  Max 1.32E-06 RMS 2.16E-07

Current DIIS subspace size = 6
REM_GRID_RESTART_DIIS = 0

    6    -153.0105628614      2.16E-07  00000
Finding J and K together
 Job number = 22, Threshold = 1.00E-11
Integral type ranges set in mkLRange.C for JobNum: 22  <1-6|1-6>
 MakeJK  time:  CPU       0.11 s  wall       0.11 s
Fock build time:  0.11 s (CPU) 0.11 s (wall)
DIIS Errors:  Max 4.54E-07 RMS 7.64E-08

Current DIIS subspace size = 7
REM_GRID_RESTART_DIIS = 0

    7    -153.0105628614      7.64E-08  00000
Finding J and K together
 Job number = 22, Threshold = 1.00E-11
Integral type ranges set in mkLRange.C for JobNum: 22  <1-6|1-6>
 MakeJK  time:  CPU       0.11 s  wall       0.11 s
Fock build time:  0.11 s (CPU) 0.11 s (wall)
DIIS Errors:  Max 1.01E-07 RMS 1.57E-08

Current DIIS subspace size = 8
REM_GRID_RESTART_DIIS = 0

    8    -153.0105628614      1.57E-08  00000
Finding J and K together
 Job number = 22, Threshold = 1.00E-11
Integral type ranges set in mkLRange.C for JobNum: 22  <1-6|1-6>
 MakeJK  time:  CPU       0.19 s  wall       0.20 s
Fock build time:  0.19 s (CPU) 0.20 s (wall)
DIIS Errors:  Max 2.26E-08 RMS 4.43E-09

Current DIIS subspace size = 9
REM_GRID_RESTART_DIIS = 0

    9    -153.0105628614      4.43E-09  00000 Convergence criterion met
 ---------------------------------------
 SCF time:  CPU 1.30 s  wall 1.31 s
 SCF   energy in the final basis set = -153.01056286
 Total energy in the final basis set = -153.01056286
drvman_main.C: 73: calling DrvMan  Calculating analytic gradient of the SCF energy
drvman.C : 218: Calculating analytic gradient of the SCF energy
drvman.C: 244: calling SCF_Grad for normal SCF gradient
 Job number = 111, Threshold = 1.00E-11
Integral type ranges set in mkLRange.C for JobNum: 11  <1-6|7-7>
Finding J and K together
 ML is being used
 Job number = 122, Threshold = 1.00E-11
Integral type ranges set in mkLRange.C for JobNum: 22  <1-6|1-6>
 MakeJK  time:  CPU       0.40 s  wall       0.39 s
 Gradient of SCF Energy
            1           2           3           4           5           6
    1   0.0199592  -0.0371425   0.0039363   0.0074361   0.0497245  -0.0281804
    2   0.0030201   0.0042373   0.0083770  -0.0126662   0.0059900   0.0174671
    3   0.0069170   0.0370129  -0.0012532  -0.0268501  -0.0331261   0.0383479
            7           8           9          10
    1  -0.0308410   0.0058028   0.0044167   0.0048884
    2  -0.0188529  -0.0027218  -0.0017090  -0.0031416
    3  -0.0035738  -0.0096551   0.0013852  -0.0092048
 Max gradient component =       4.972E-02
 RMS gradient           =       2.002E-02
drvman.C: 248: out of SCF_Grad for normal SCF gradient
 Gradient time:  CPU 0.41 s  wall 0.42 s
 ------------------------------------------------------------------------------
                     drvman        : Timing summary (seconds)
 ------------------------------------------------------------------------------
     job step          cpu (% of tot)      sys (% of tot)     wall (% of tot)
 ------------------------------------------------------------------------------
 ------------------------------------------------------------------------------
   Grand Totals     0.4120E+00          0.2000E-05          0.4181E+00
 ------------------------------------------------------------------------------
drvman_main.C: 77: out of DrvMan  Time for this dynamics step: 1.7 s (CPU) 1.8 s (wall)

TIME STEP #400 (t = 7980.000 a.u. = 193.02697 fs)
--------------------------------------
 Instantaneous Temperature = 263.8 K
 ----------------------------------------------------------------
             Standard Nuclear Orientation (Angstroms)
    I     Atom           X                Y                Z
 ----------------------------------------------------------------
    1      C       5.6263204798    -0.4079612956    -2.0003219967
    2      C       4.4375356049    -0.5238386954    -1.4045993092
    3      H       6.4349448407     0.1814807943    -1.5753221992
    4      H       5.8451593383    -0.8484766132    -3.0093052247
    5      C       3.3138670196    -1.2380986310    -2.0877531731
    6      C       2.1020816702    -1.3257224043    -1.4888006763
    7      H       1.2061126100    -1.9001266221    -1.8594136849
    8      H       1.9868600658    -0.8474309657    -0.5398337797
    9      H       4.2831349587    -0.1128404913    -0.4207991667
   10      H       3.5362436337    -1.6823368130    -3.0668258701
 ----------------------------------------------------------------
 Nuclear Repulsion Energy =   102.9894479021 hartrees
 There are       15 alpha and       15 beta electrons

                       Distance Matrix (Angstroms)
             C (  1)   C (  2)   H (  3)   H (  4)   C (  5)   C (  6)
   C (  2)  1.334737
   H (  3)  1.087171  2.125151
   H (  4)  1.122493  2.159138  1.861442
   C (  5)  2.458498  1.496495  3.466831  2.721857
   C (  6)  3.677526  2.470719  4.588339  4.068209  1.354565
   H (  7)  4.667403  3.541627  5.635112  4.893769  2.221047  1.126967
   H (  8)  3.946116  2.618844  4.681491  4.580913  2.075963  1.068914
   H (  9)  2.094310  1.077322  2.459641  3.111502  2.232582  2.714536
   H ( 10)  2.670184  2.217531  3.755112  2.455549  1.097899  2.161980
             H (  7)   H (  8)   H (  9)
   H (  8)  1.859846
   H (  9)  3.838238  2.413850
   H ( 10)  2.633398  3.079504  3.165853

 Applying Cartesian multipole field
    Component          Value
    ---------          -----
     (2,0,0)        1.00000E-12
     (0,2,0)        2.00000E-11
     (0,0,2)       -3.00000E-11
 Nucleus-field energy     =    -0.0000000067 hartrees
 ENuRep (before)= 102.9894479021
 ENucField = -0.0000000067
 ENuRep (after) = 102.9894478954
 Job number = 2, Threshold = 1.00E-11
Integral type ranges set in mkLRange.C for JobNum: 2  <1-6|1-6>
Symmetry turned off temporarily
Symmetry turned back on
 Job number = 11, Threshold = 1.00E-11
Integral type ranges set in mkLRange.C for JobNum: 11  <1-6|7-7>
 Smallest overlap matrix eigenvalue = 1.88E-01
 Multipole matrices computed through 2nd order
 Extrapolating the Fock matrix using 12 points and a 6th-order polynomial
 Alpha Fock matrix extrapolation
 Skip SCF guess (diagonalize extrapolated Fock matrix instead)
 SCF convergence criterion is 10**(-8)
 A restricted Hartree-Fock SCF calculation will be
 performed using Pulay DIIS extrapolation
 SCF converges when DIIS error is below 1.0E-08
Extrapolated Fock matrix used in lieu of Fock build
Fock build time:  0.00 s (CPU) 0.00 s (wall)
DIIS Errors:  Max 9.94E-03 RMS 1.56E-03

Current DIIS subspace size = 1
REM_GRID_RESTART_DIIS = 0

 ---------------------------------------
  Cycle       Energy         DIIS Error
 ---------------------------------------
    1    -307.5341759371      1.56E-03  00000
Finding J and K together
 Job number = 22, Threshold = 1.00E-11
Integral type ranges set in mkLRange.C for JobNum: 22  <1-6|1-6>
 MakeJK  time:  CPU       0.17 s  wall       0.17 s
Fock build time:  0.17 s (CPU) 0.17 s (wall)
DIIS Errors:  Max 3.08E-03 RMS 3.24E-04

Current DIIS subspace size = 2
REM_GRID_RESTART_DIIS = 0

    2    -153.0102865518      3.24E-04  00000
Finding J and K together
 Job number = 22, Threshold = 1.00E-11
Integral type ranges set in mkLRange.C for JobNum: 22  <1-6|1-6>
 MakeJK  time:  CPU       0.12 s  wall       0.13 s
Fock build time:  0.12 s (CPU) 0.13 s (wall)
DIIS Errors:  Max 3.66E-04 RMS 4.00E-05

Current DIIS subspace size = 3
REM_GRID_RESTART_DIIS = 0

    3    -153.0102882739      4.00E-05  00000
Finding J and K together
 Job number = 22, Threshold = 1.00E-11
Integral type ranges set in mkLRange.C for JobNum: 22  <1-6|1-6>
 MakeJK  time:  CPU       0.12 s  wall       0.12 s
Fock build time:  0.12 s (CPU) 0.12 s (wall)
DIIS Errors:  Max 1.37E-05 RMS 2.08E-06

Current DIIS subspace size = 4
REM_GRID_RESTART_DIIS = 0

    4    -153.0102883105      2.08E-06  00000
Finding J and K together
 Job number = 22, Threshold = 1.00E-11
Integral type ranges set in mkLRange.C for JobNum: 22  <1-6|1-6>
 MakeJK  time:  CPU       0.14 s  wall       0.15 s
Fock build time:  0.14 s (CPU) 0.15 s (wall)
DIIS Errors:  Max 6.84E-06 RMS 1.18E-06

Current DIIS subspace size = 5
REM_GRID_RESTART_DIIS = 0

    5    -153.0102883111      1.18E-06  00000
Finding J and K together
 Job number = 22, Threshold = 1.00E-11
Integral type ranges set in mkLRange.C for JobNum: 22  <1-6|1-6>
 MakeJK  time:  CPU       0.18 s  wall       0.19 s
Fock build time:  0.18 s (CPU) 0.19 s (wall)
DIIS Errors:  Max 1.07E-06 RMS 1.80E-07

Current DIIS subspace size = 6
REM_GRID_RESTART_DIIS = 0

    6    -153.0102883113      1.80E-07  00000
Finding J and K together
 Job number = 22, Threshold = 1.00E-11
Integral type ranges set in mkLRange.C for JobNum: 22  <1-6|1-6>
 MakeJK  time:  CPU       0.14 s  wall       0.15 s
Fock build time:  0.14 s (CPU) 0.15 s (wall)
DIIS Errors:  Max 3.86E-07 RMS 6.11E-08

Current DIIS subspace size = 7
REM_GRID_RESTART_DIIS = 0

    7    -153.0102883113      6.11E-08  00000
Finding J and K together
 Job number = 22, Threshold = 1.00E-11
Integral type ranges set in mkLRange.C for JobNum: 22  <1-6|1-6>
 MakeJK  time:  CPU       0.19 s  wall       0.19 s
Fock build time:  0.19 s (CPU) 0.19 s (wall)
DIIS Errors:  Max 6.06E-08 RMS 9.94E-09

Current DIIS subspace size = 8
REM_GRID_RESTART_DIIS = 0

    8    -153.0102883113      9.94E-09  00000 Convergence criterion met
 ---------------------------------------
 SCF time:  CPU 1.09 s  wall 1.12 s
 SCF   energy in the final basis set = -153.01028831
 Total energy in the final basis set = -153.01028831
drvman_main.C: 73: calling DrvMan  Calculating analytic gradient of the SCF energy
drvman.C : 218: Calculating analytic gradient of the SCF energy
drvman.C: 244: calling SCF_Grad for normal SCF gradient
 Job number = 111, Threshold = 1.00E-11
Integral type ranges set in mkLRange.C for JobNum: 11  <1-6|7-7>
Finding J and K together
 ML is being used
 Job number = 122, Threshold = 1.00E-11
Integral type ranges set in mkLRange.C for JobNum: 22  <1-6|1-6>
 MakeJK  time:  CPU       0.43 s  wall       0.46 s
 Gradient of SCF Energy
            1           2           3           4           5           6
    1   0.0132876  -0.0337769   0.0018115   0.0096930   0.0523458  -0.0269721
    2   0.0036233   0.0071677   0.0070371  -0.0133677   0.0068776   0.0211698
    3   0.0135106   0.0391508  -0.0020836  -0.0302642  -0.0298951   0.0425578
            7           8           9          10
    1  -0.0326689   0.0061147   0.0061589   0.0040064
    2  -0.0215302  -0.0036421  -0.0036205  -0.0037151
    3  -0.0053572  -0.0123394  -0.0034077  -0.0118720
 Max gradient component =       5.235E-02
 RMS gradient           =       2.082E-02
drvman.C: 248: out of SCF_Grad for normal SCF gradient
 Gradient time:  CPU 0.45 s  wall 0.48 s
 ------------------------------------------------------------------------------
                     drvman        : Timing summary (seconds)
 ------------------------------------------------------------------------------
     job step          cpu (% of tot)      sys (% of tot)     wall (% of tot)
 ------------------------------------------------------------------------------
 ------------------------------------------------------------------------------
   Grand Totals     0.4480E+00          0.1000E-05          0.4785E+00
 ------------------------------------------------------------------------------
drvman_main.C: 77: out of DrvMan  Time for this dynamics step: 1.6 s (CPU) 1.6 s (wall)

=============== TIME STEPS COMPLETED ==================

Step-to-Step energy fluctuations, |E(n) - E(n-1)|
Mean: 1.811e-07   Max: 4.192e-05   RMS: 1.619e-05
Overall energy fluctuations, |E(n) - E(0)|
Mean: 5.126e-05   Max: 1.192e-04   RMS: 2.703e-05   RMS(dE)/RMS(dV): 1.133e-02
Kinetic energy fluctuations, |T(n) - V(0)|
Mean: -5.723e-03   Max: 1.211e-02   RMS: 2.366e-03
Potential energy fluctuations, |V(n) - V(0)|
Mean: 5.774e-03   Max: 1.223e-02   RMS: 2.386e-03


 JobOver = TRUE
Archival summary:
1\1\qciep03\JobtypUnspecified\HF\STO-3G\46\jcartus\MonJun1812:05:182018MonJun1812:05:182018\0\\#,JobtypUnspecified,HF,STO-3G,\\0,1\C\H,1,1.07732\C,1,1.33474,2,120.139\H,3,1.08717,1,122.347,2,-6.52195,0\H,3,1.12249,1,122.735,2,177.942,0\C,1,1.4965,2,119.429,3,179.278,0\H,6,1.0979,1,116.624,2,-177.02,0\C,6,1.35456,1,120.049,2,2.17543,0\H,8,1.06891,6,117.39,1,1.5868,0\H,8,1.12697,6,126.783,1,-174.897,0\\HF=-153.010288\\@

 Total job time:  708.49s(wall), 691.66s(cpu) 
 Mon Jun 18 12:05:18 2018

        *************************************************************
        *                                                           *
        *  Thank you very much for using Q-Chem.  Have a nice day.  *
        *                                                           *
        *************************************************************


*** MISSION COMPLETED -- STARFLEET OUT ***

0 sent ACK to 0 
now end server 0 ... 
