Process 0 of 1 is on qciep03 - thread support 0
initial socket setup ...start
initial socket setup ...done 
now start server 0 ... 
qciep03.tugraz.at 127.0.1
Q-Chem Developer Version! Running on 127.0.1.*
                  Welcome to Q-Chem
     A Quantum Leap Into The Future Of Chemistry


 Q-Chem 5.0, Q-Chem, Inc., Pleasanton, CA (2017)

 Yihan Shao,  Zhengting Gan,  E. Epifanovsky,  A. T. B. Gilbert,  M. Wormit,  
 J. Kussmann,  A. W. Lange,  A. Behn,  Jia Deng,  Xintian Feng,  D. Ghosh,  
 M. Goldey,  P. R. Horn,  L. D. Jacobson,  I. Kaliman,  T. Kus,  A. Landau,  
 Jie Liu,  E. I. Proynov,  R. M. Richard,  R. P. Steele,  E. J. Sundstrom,  
 H. L. Woodcock III,  P. M. Zimmerman,  D. Zuev,  B. Albrecht,  E. Alguire,  
 S. A. Baeppler,  D. Barton,  Z. Benda,  Y. A. Bernard,  E. J. Berquist,  
 K. B. Bravaya,  H. Burton,  D. Casanova,  Chun-Min Chang,  Yunqing Chen,  
 A. Chien,  K. D. Closser,  M. P. Coons,  S. Dasgupta,  A. L. Dempwolff,  
 M. Diedenhofen,  Hainam Do,  R. G. Edgar,  Po-Tung Fang,  S. Fatehi,  
 Qingguo Feng,  J. Fosso-Tande,  Qinghui Ge,  A. Ghysels,  G. Gidofalvi,  
 J. Gomes,  J. Gonthier,  A. Gunina,  M. W. D. Hanson-Heine,  
 P. H. P. Harbach,  A. W. Hauser,  J. E. Herr,  E. G. Hohenstein,  
 Z. C. Holden,  Kerwin Hui,  T.-C. Jagau,  Hyunjun Ji,  B. Kaduk,  
 K. Khistyaev,  Jaehoon Kim,  P. Klunzinger,  K. Koh,  D. Kosenkov,  
 L. Koulias,  T. Kowalczyk,  C. M. Krauter,  A. Kunitsa,  Ka Un Lao,  
 A. Laurent,  K. V. Lawler,  Joonho Lee,  D. Lefrancois,  S. Lehtola,  
 D. S. Levine,  Yi-Pei Li,  You-Sheng Lin,  Fenglai Liu,  E. Livshits,  
 A. Luenser,  P. Manohar,  E. Mansoor,  S. F. Manzer,  Shan-Ping Mao,  
 Yuezhi Mao,  N. Mardirossian,  A. V. Marenich,  T. Markovich,  
 L. A. Martinez-Martinez,  S. A. Maurer,  N. J. Mayhall,  S. C. McKenzie,  
 J.-M. Mewes,  A. F. Morrison,  J. W. Mullinax,  K. Nanda,  
 T. S. Nguyen-Beck,  R. Olivares-Amaya,  J. A. Parkhill,  T. M. Perrine,  
 F. Plasser,  S. Prager,  A. Prociuk,  E. Ramos,  D. R. Rehn,  F. Rob,  
 M. Schneider,  N. Sergueev,  S. M. Sharada,  S. Sharma,  D. W. Small,  
 T. Stauch,  T. Stein,  Yu-Chuan Su,  A. J. W. Thom,  A. Tkatchenko,  
 T. Tsuchimochi,  L. Vogt,  O. Vydrov,  M. A. Watson,  J. Wenzel,  
 M. de Wergifosse,  T. A. Wesolowski,  A. White,  J. Witte,  A. Yamada,  
 Jun Yang,  K. Yao,  S. Yeganeh,  S. R. Yost,  Zhi-Qiang You,  A. Zech,  
 Igor Ying Zhang,  Xing Zhang,  Yan Zhao,  Ying Zhu,  B. R. Brooks,  
 G. K. L. Chan,  C. J. Cramer,  M. S. Gordon,  W. J. Hehre,  A. Klamt,  
 M. W. Schmidt,  C. D. Sherrill,  D. G. Truhlar,  A. Aspuru-Guzik,  R. Baer,  
 A. T. Bell,  N. A. Besley,  Jeng-Da Chai,  R. A. DiStasio Jr.,  A. Dreuw,  
 B. D. Dunietz,  T. R. Furlani,  Chao-Ping Hsu,  Yousung Jung,  Jing Kong,  
 D. S. Lambrecht,  WanZhen Liang,  C. Ochsenfeld,  V. A. Rassolov,  
 L. V. Slipchenko,  J. E. Subotnik,  T. Van Voorhis,  J. M. Herbert,  
 A. I. Krylov,  P. M. W. Gill,  M. Head-Gordon

 Contributors to earlier versions of Q-Chem not listed above: 
 R. D. Adamson,  B. Austin,  J. Baker,  G. J. O. Beran,  K. Brandhorst,  
 S. T. Brown,  E. F. C. Byrd,  A. K. Chakraborty,  C.-L. Cheng,  
 Siu Hung Chien,  D. M. Chipman,  D. L. Crittenden,  H. Dachsel,  
 R. J. Doerksen,  A. D. Dutoi,  L. Fusti-Molnar,  W. A. Goddard III,  
 A. Golubeva-Zadorozhnaya,  S. R. Gwaltney,  G. Hawkins,  A. Heyden,  
 S. Hirata,  G. Kedziora,  F. J. Keil,  C. Kelley,  Jihan Kim,  R. A. King,  
 R. Z. Khaliullin,  P. P. Korambath,  W. Kurlancheek,  A. M. Lee,  M. S. Lee,  
 S. V. Levchenko,  Ching Yeh Lin,  D. Liotard,  R. C. Lochan,  I. Lotan,  
 P. E. Maslen,  N. Nair,  D. P. O'Neill,  D. Neuhauser,  E. Neuscamman,  
 C. M. Oana,  R. Olson,  B. Peters,  R. Peverati,  P. A. Pieniazek,  
 Y. M. Rhee,  J. Ritchie,  M. A. Rohrdanz,  E. Rosta,  N. J. Russ,  
 H. F. Schaefer III,  N. E. Schultz,  N. Shenvi,  A. C. Simmonett,  A. Sodt,  
 D. Stuck,  K. S. Thanthiriwatte,  V. Vanovschi,  Tao Wang,  A. Warshel,  
 C. F. Williams,  Q. Wu,  X. Xu,  W. Zhang

 Please cite Q-Chem as follows:
 Y. Shao et al., Mol. Phys. 113, 184-215 (2015)
 DOI: 10.1080/00268976.2014.952696

 Q-Chem 5.0.2 for Intel X86 EM64T Linux

 Parts of Q-Chem use Armadillo 5.200.1 (Boston Tea Smuggler).
 http://arma.sourceforge.net/

 Q-Chem begins on Mon Jun 18 12:23:04 2018  


Host: 0

     Scratch files written to /home/jcartus/scratch/Butadien_15.mol.dir//
 Using version located at /usr/local/qchem/bin/qchem

 Parallel job on  1  processors
Symmetry disabled for AIMD jobs.

Total Memory Limit in MB = 2000
Mega-Array Size in MB = 192

Checking the input file for inconsistencies... 	...done.
Finally everything over in PARseQInput

--------------------------------------------------------------
User input:
--------------------------------------------------------------
$rem
AIMD_STEPS                    400
FOCK_EXTRAP_POINTS            12
MAX_SCF_CYCLES                100
BASIS                         sto-3g
AIMD_INIT_VELOC               thermal
FOCK_EXTRAP_ORDER             6
AIMD_TEMP                     400
AIMD_METHOD                   bomd
TIME_STEP                     20
METHOD                        hf
JOBTYPE                       aimd
$end

$molecule
0 1
C    5.41628    -0.85642    -0.58028
C    4.31090    -0.33872    -0.61108
H    6.00356    -0.67089    0.46923
H    5.50809    -1.72011    -1.02676
C    3.18577    -0.32114    -1.18516
C    2.09463    0.45272    -1.16054
H    0.47441    0.44249    -2.28636
H    2.00213    1.27918    -0.43637
H    4.82395    0.83940    -1.34976
H    3.23494    -1.14384    -1.89555
$end


--------------------------------------------------------------
 ----------------------------------------------------------------
             Standard Nuclear Orientation (Angstroms)
    I     Atom           X                Y                Z
 ----------------------------------------------------------------
    1      C       5.4162800000    -0.8564200000    -0.5802800000
    2      C       4.3109000000    -0.3387200000    -0.6110800000
    3      H       6.0035600000    -0.6708900000     0.4692300000
    4      H       5.5080900000    -1.7201100000    -1.0267600000
    5      C       3.1857700000    -0.3211400000    -1.1851600000
    6      C       2.0946300000     0.4527200000    -1.1605400000
    7      H       0.4744100000     0.4424900000    -2.2863600000
    8      H       2.0021300000     1.2791800000    -0.4363700000
    9      H       4.8239500000     0.8394000000    -1.3497600000
   10      H       3.2349400000    -1.1438400000    -1.8955500000
 ----------------------------------------------------------------
 Nuclear Repulsion Energy =   105.4963341012 hartrees
 There are       15 alpha and       15 beta electrons
 Requested basis set is STO-3G
 There are 14 shells and 26 basis functions

 Total QAlloc Memory Limit   2000 MB
 Mega-Array Size       188 MB
 MEM_STATIC part       192 MB

finished with qalloc call

                       Distance Matrix (Angstroms)
             C (  1)   C (  2)   H (  3)   H (  4)   C (  5)   C (  6)
   C (  2)  1.220994
   H (  3)  1.216877  2.035314
   H (  4)  0.976593  1.874645  1.893235
   C (  5)  2.372252  1.263248  3.286225  2.715765
   C (  6)  3.617168  2.416637  4.381596  4.048555  1.337928
   H (  7)  5.387017  4.258580  6.277292  5.621509  3.024441  1.972990
   H (  8)  4.029630  2.824631  4.542502  4.651457  2.126667  1.102731
   H (  9)  1.954165  1.482172  2.642192  2.668983  2.014344  2.763062
   H ( 10)  2.563355  1.858970  3.671665  2.500819  1.088075  2.095125
             H (  7)   H (  8)   H (  9)
   H (  8)  2.540953
   H (  9)  4.466907  2.998392
   H ( 10)  3.207756  3.085458  2.599246

 Job number = 2, Threshold = 1.00E-11
Integral type ranges set in mkLRange.C for JobNum: 2  <1-6|1-6>
Symmetry turned off temporarily
 Using the largest function pair in Schwarz integrals
Total number of integrals generated =            3252
Symmetry turned back on
 A cutoff of  1.0D-11 yielded    102 shell pairs
 There are       372 function pairs
 Job number = 11, Threshold = 1.00E-11
Integral type ranges set in mkLRange.C for JobNum: 11  <1-6|7-7>
Total number of integrals generated =            3720
 Smallest overlap matrix eigenvalue = 1.36E-01
 Multipole matrices computed through 2nd order

 Scale SEOQF with 1.000000e-02/1.000000e-01/1.000000e-01

 Standard Electronic Orientation quadrupole field applied
 Nucleus-field energy     =    -0.0000000008 hartrees
 ENuRep (before)= 105.4963341012
 ENucField = -0.0000000008
 ENuRep (after) = 105.4963341004
 Guess from superposition of atomic densities
 Warning:  Energy on first SCF cycle will be non-variational
 SAD guess density has 30.000000 electrons

 ==================================================
    GEN_SCFMAN: A general SCF calculation manager  
                                                   
    Authors:                                       
        -- Eric Jon Sundstrom 2008-2014            
        -- Paul Horn 2010-2015                     
        -- Yuezhi Mao 2012-                        
        -- Dmitri Zuev 2014                        
        -- Alec White 2015-                        
        -- David Stuck 2015                        
        -- Shaama M.S. 2015                        
        -- Shane Yost 2015-                         
        -- Joonho Lee 2016-                        
        -- David Small 2016-                       
        -- Daniel Levine 2016-                     
        -- Susi Lehtola 2017-                      
        -- Hugh Burton 2017-                       
 ==================================================
 Hartree-Fock
Finding J and K together
 Job number = 22, Threshold = 1.00E-11
Integral type ranges set in mkLRange.C for JobNum: 22  <1-6|1-6>
 MakeJK  time:  CPU       0.15 s  wall       0.17 s
 A restricted SCF calculation will be
 performed using DIIS
 SCF converges when DIIS error is below 1.0e-08
 ---------------------------------------
  Cycle       Energy         DIIS error
 ---------------------------------------
Finding J and K together
 Job number = 22, Threshold = 1.00E-11
Integral type ranges set in mkLRange.C for JobNum: 22  <1-6|1-6>
 MakeJK  time:  CPU       0.20 s  wall       0.21 s
    1    -152.7451505270      2.42e-01  
Finding J and K together
 Job number = 22, Threshold = 1.00E-11
Integral type ranges set in mkLRange.C for JobNum: 22  <1-6|1-6>
 MakeJK  time:  CPU       0.20 s  wall       0.20 s
    2    -152.3693595813      1.58e-02  
Finding J and K together
 Job number = 22, Threshold = 1.00E-11
Integral type ranges set in mkLRange.C for JobNum: 22  <1-6|1-6>
 MakeJK  time:  CPU       0.20 s  wall       0.20 s
    3    -152.4072998265      7.64e-03  
Finding J and K together
 Job number = 22, Threshold = 1.00E-11
Integral type ranges set in mkLRange.C for JobNum: 22  <1-6|1-6>
 MakeJK  time:  CPU       0.19 s  wall       0.19 s
    4    -152.4143136274      2.96e-03  
Finding J and K together
 Job number = 22, Threshold = 1.00E-11
Integral type ranges set in mkLRange.C for JobNum: 22  <1-6|1-6>
 MakeJK  time:  CPU       0.18 s  wall       0.18 s
    5    -152.4158056034      5.62e-04  
Finding J and K together
 Job number = 22, Threshold = 1.00E-11
Integral type ranges set in mkLRange.C for JobNum: 22  <1-6|1-6>
 MakeJK  time:  CPU       0.19 s  wall       0.20 s
    6    -152.4158772331      2.84e-04  
Finding J and K together
 Job number = 22, Threshold = 1.00E-11
Integral type ranges set in mkLRange.C for JobNum: 22  <1-6|1-6>
 MakeJK  time:  CPU       0.19 s  wall       0.21 s
    7    -152.4159010704      1.39e-04  
Finding J and K together
 Job number = 22, Threshold = 1.00E-11
Integral type ranges set in mkLRange.C for JobNum: 22  <1-6|1-6>
 MakeJK  time:  CPU       0.20 s  wall       0.21 s
    8    -152.4159107049      5.36e-05  
Finding J and K together
 Job number = 22, Threshold = 1.00E-11
Integral type ranges set in mkLRange.C for JobNum: 22  <1-6|1-6>
 MakeJK  time:  CPU       0.14 s  wall       0.14 s
    9    -152.4159117772      1.46e-05  
Finding J and K together
 Job number = 22, Threshold = 1.00E-11
Integral type ranges set in mkLRange.C for JobNum: 22  <1-6|1-6>
 MakeJK  time:  CPU       0.12 s  wall       0.12 s
   10    -152.4159119090      7.06e-06  
Finding J and K together
 Job number = 22, Threshold = 1.00E-11
Integral type ranges set in mkLRange.C for JobNum: 22  <1-6|1-6>
 MakeJK  time:  CPU       0.14 s  wall       0.14 s
   11    -152.4159119415      2.31e-06  
Finding J and K together
 Job number = 22, Threshold = 1.00E-11
Integral type ranges set in mkLRange.C for JobNum: 22  <1-6|1-6>
 MakeJK  time:  CPU       0.14 s  wall       0.14 s
   12    -152.4159119451      4.18e-07  
Finding J and K together
 Job number = 22, Threshold = 1.00E-11
Integral type ranges set in mkLRange.C for JobNum: 22  <1-6|1-6>
 MakeJK  time:  CPU       0.17 s  wall       0.17 s
   13    -152.4159119452      1.05e-07  
Finding J and K together
 Job number = 22, Threshold = 1.00E-11
Integral type ranges set in mkLRange.C for JobNum: 22  <1-6|1-6>
 MakeJK  time:  CPU       0.15 s  wall       0.16 s
   14    -152.4159119452      2.92e-08  
   15    -152.4159119452      4.87e-09  Convergence criterion met
 ---------------------------------------
 SCF time:   CPU 2.57s  wall 3.00s 
 Total energy in the final basis set =     -152.4159119452
Wall  1 = 3
Clock 1 = 2.5677719116
 ==================================================
                  Done GEN_SCFMAN                  
 ==================================================

Symmetry turned off temporarily

 --------------------------------------------------------------

                    Orbital Energies (a.u.)
 --------------------------------------------------------------

 Alpha MOs
 -- Occupied --
-11.043 -11.031 -11.026 -11.000  -1.075  -0.957  -0.788  -0.666
 -0.599  -0.557  -0.506  -0.479  -0.318  -0.285  -0.200
 -- Virtual --
  0.174   0.196   0.293   0.525   0.613   0.634   0.817   0.850
  0.899   1.158   1.358
 --------------------------------------------------------------

          Ground-State Mulliken Net Atomic Charges

     Atom                 Charge (a.u.)
  ----------------------------------------
      1 C                    -0.127247
      2 C                    -0.052068
      3 H                     0.073185
      4 H                     0.064528
      5 C                    -0.106086
      6 C                    -0.017678
      7 H                     0.007116
      8 H                     0.066690
      9 H                     0.032800
     10 H                     0.058760
  ----------------------------------------
  Sum of atomic charges =     0.000000

 -----------------------------------------------------------------
                    Cartesian Multipole Moments
 -----------------------------------------------------------------
    Charge (ESU x 10^10)
                -0.0000
    Dipole Moment (Debye)
         X      -0.2350      Y       0.1178      Z      -0.1493
       Tot       0.3023
    Quadrupole Moments (Debye-Ang)
        XX     -24.4453     XY      -0.4085     YY     -23.3235
        XZ       0.4789     YZ      -0.0590     ZZ     -22.9993
    Octopole Moments (Debye-Ang^2)
       XXX    -270.5816    XXY       2.8922    XYY     -87.0080
       YYY      17.4116    XXZ      25.3369    XYZ      -0.2928
       YYZ      21.5000    XZZ     -87.0940    YZZ       5.4717
       ZZZ      65.1246
    Hexadecapole Moments (Debye-Ang^3)
      XXXX   -2333.0288   XXXY      99.8948   XXYY    -390.6509
      XYYY     111.9484   YYYY     -85.0517   XXXZ     245.4612
      XXYZ      -8.5931   XYYZ      67.3220   YYYZ      -8.1656
      XXZZ    -396.2589   XYZZ      35.0404   YYZZ     -42.2624
      XZZZ     215.2449   YZZZ      -9.8093   ZZZZ    -172.9140
 -----------------------------------------------------------------
drvman_main.C: 73: calling DrvMan  Calculating analytic gradient of the SCF energy
drvman.C : 218: Calculating analytic gradient of the SCF energy
drvman.C: 244: calling SCF_Grad for normal SCF gradient
 Job number = 111, Threshold = 1.00E-11
Integral type ranges set in mkLRange.C for JobNum: 11  <1-6|7-7>
Finding J and K together
 ML is being used
 Job number = 122, Threshold = 1.00E-11
Integral type ranges set in mkLRange.C for JobNum: 22  <1-6|1-6>
Total number of integrals generated =           70316
 MakeJK  time:  CPU       0.50 s  wall       0.61 s
 Gradient of SCF Energy
            1           2           3           4           5           6
    1  -0.1657877  -0.0912727  -0.0043262  -0.0305540   0.2665761   0.0744784
    2   0.0525434  -0.2949320  -0.0116725   0.1434830   0.0672245  -0.0020147
    3  -0.1536471  -0.0405543   0.1004896   0.0305754   0.1738205   0.0505216
            7           8           9          10
    1  -0.1222578   0.0042558   0.0314395   0.0374486
    2   0.0062411   0.0044409   0.0276644   0.0070219
    3  -0.0807494   0.0080382  -0.1086066   0.0201122
 Max gradient component =       2.949E-01
 RMS gradient           =       1.056E-01
drvman.C: 248: out of SCF_Grad for normal SCF gradient
 Gradient time:  CPU 0.52 s  wall 0.63 s
 ------------------------------------------------------------------------------
                     drvman        : Timing summary (seconds)
 ------------------------------------------------------------------------------
     job step          cpu (% of tot)      sys (% of tot)     wall (% of tot)
 ------------------------------------------------------------------------------
 ------------------------------------------------------------------------------
   Grand Totals     0.5240E+00          0.2000E-05          0.6302E+00
 ------------------------------------------------------------------------------
drvman_main.C: 77: out of DrvMan =======================================================
            AB INITIO MOLECULAR DYNAMICS
=======================================================
Created directory /home/jcartus/scratch/Butadien_15.mol.dir/AIMD
AIMD will take 400 BOMD steps Velocity Verlet integration
Time step = 20.00000 a.u. ( = 0.48378 fs)
Total simulation time requested = 193.511 fs
Integral threshold = 10**(-11)
SCF convergence threshold = 10**(-8)
Generating viewable xyz trajectory,
 file (in Angstroms) at AIMD/View.xyz
Choosing nuclear velocities from Maxwell-Boltzmann
Velocities sampled from Maxwell-Boltzmann at T = 400.0 K
sqrt(kT/m) and (vx,vy,vz) for each atom:
  1   2.4064e-04   4.61e-04   8.55e-05   3.65e-04 
  2   2.4064e-04   1.23e-04  -4.35e-04   8.81e-05 
  3   8.3036e-04   2.37e-03   4.91e-05   2.01e-04 
  4   8.3036e-04   3.82e-04   8.58e-04  -6.26e-05 
  5   2.4064e-04  -4.82e-05   3.02e-04   2.10e-04 
  6   2.4064e-04  -1.36e-04   2.81e-04  -3.42e-04 
  7   8.3036e-04   7.97e-04  -7.22e-04  -1.01e-04 
  8   8.3036e-04  -1.42e-04  -1.79e-03  -1.83e-03 
  9   8.3036e-04  -2.02e-04  -2.58e-04   1.56e-04 
 10   8.3036e-04   1.04e-03   1.35e-03  -1.78e-05 
T(nuclear) = 0.02596541 a.u.
v(c.o.m.) = (  1.6796e-04,   4.2362e-05,   4.0524e-05)
T(c.o.m.) = 1.55890e-03 a.u.
kT/2 = 0.000633 a.u.
Tx   = 0.009662 a.u.
Ty   = 0.009864 a.u.
Tz   = 0.006439 a.u.
Mean velocities (a.u.):   4.6504e-04  -2.7843e-05  -1.3292e-04
Removing c.o.m. velocity
T(nuclear) = 0.02421388 a.u.
v(c.o.m.) = ( -1.6340e-20,  -2.2538e-20,  -1.7467e-20)
T(c.o.m.) = 5.32026e-35 a.u.
kT   = 0.001267 a.u. = 0.79 kcal/mol
Tx   = 0.006689 a.u. = 4.20 kcal/mol
Ty   = 0.010281 a.u. = 6.45 kcal/mol
Tz   = 0.007245 a.u. = 4.55 kcal/mol
Initial velocities in m/s
  1      8.4267e+02      1.4532e+02      7.5921e+02 
  2      1.0309e+02     -9.9324e+02      1.5277e+02 
  3      3.2223e+03     -3.8950e+02     -3.5271e+01 
  4     -1.1344e+03      1.3796e+03     -6.1242e+02 
  5     -2.7104e+02      6.1976e+02      4.1883e+02 
  6     -4.6285e+02      5.7271e+02     -7.8803e+02 
  7     -2.2791e+02     -2.0765e+03     -6.9714e+02 
  8     -2.2819e+03     -4.4185e+03     -4.4696e+03 
  9     -2.4116e+03     -1.0615e+03     -1.3416e+02 
 10      3.1078e+02      2.4639e+03     -5.1426e+02 
----------------------------------------------------------------------------
       Nuclear coordinates (Angst) and velocities (a.u.)
----------------------------------------------------------------------------
             x        y        z            v_x         v_y        v_z
----------------------------------------------------------------------------
1      C    5.4163  -0.8564  -0.5803     3.8519e-04   6.6426e-05   3.4704e-04
2      C    4.3109  -0.3387  -0.6111     4.7125e-05  -4.5401e-04   6.9833e-05
3      H    6.0036  -0.6709   0.4692     1.4729e-03  -1.7804e-04  -1.6123e-05
4      H    5.5081  -1.7201  -1.0268    -5.1853e-04   6.3063e-04  -2.7994e-04
5      C    3.1858  -0.3211  -1.1852    -1.2389e-04   2.8329e-04   1.9145e-04
6      C    2.0946   0.4527  -1.1605    -2.1157e-04   2.6179e-04  -3.6021e-04
7      H    0.4744   0.4425  -2.2864    -1.0418e-04  -9.4920e-04  -3.1866e-04
8      H    2.0021   1.2792  -0.4364    -1.0431e-03  -2.0197e-03  -2.0431e-03
9      H    4.8239   0.8394  -1.3498    -1.1024e-03  -4.8523e-04  -6.1323e-05
10     H    3.2349  -1.1438  -1.8956     1.4206e-04   1.1263e-03  -2.3507e-04
----------------------------------------------------------------------------
Write nuclear velocities every 1 time steps

TIME STEP #1 (t = 0.000 a.u. = 0.00000 fs)
--------------------------------------
 Instantaneous Temperature = 509.7 K
 ----------------------------------------------------------------
             Standard Nuclear Orientation (Angstroms)
    I     Atom           X                Y                Z
 ----------------------------------------------------------------
    1      C       5.4211587797    -0.8559711947    -0.5758637172
    2      C       4.3118403467    -0.3420980971    -0.6101447098
    3      H       6.0193979344    -0.6721018844     0.4632703491
    4      H       5.5043622614    -1.7217015017    -1.0314841156
    5      C       3.1831690085    -0.3184669913    -1.1839747726
    6      C       2.0920305027     0.4555004066    -1.1645967511
    7      H       0.4803504494     0.4320846130    -2.2850807737
    8      H       1.9908453956     1.2575483963    -0.4584559264
    9      H       4.8104718655     0.8326709016    -1.3441523903
   10      H       3.2342861185    -1.1323246822    -1.8991965191
 ----------------------------------------------------------------
 Nuclear Repulsion Energy =   105.5094723269 hartrees
 There are       15 alpha and       15 beta electrons

                       Distance Matrix (Angstroms)
             C (  1)   C (  2)   H (  3)   H (  4)   C (  5)   C (  6)
   C (  2)  1.223041
   H (  3)  1.213053  2.043741
   H (  4)  0.981836  1.871615  1.897686
   C (  5)  2.380611  1.266388  3.298889  2.716663
   C (  6)  3.626246  2.423043  4.398369  4.049930  1.337903
   H (  7)  5.384431  4.252656  6.281219  5.608119  3.013468  1.963045
   H (  8)  4.030856  2.822923  4.560961  4.642100  2.105193  1.073384
   H (  9)  1.953130  1.472237  2.644356  2.665345  1.999722  2.750349
   H ( 10)  2.570991  1.856673  3.681019  2.500707  1.084675  2.089395
             H (  7)   H (  8)   H (  9)
   H (  8)  2.509889
   H (  9)  4.449243  2.985845
   H ( 10)  3.190681  3.055057  2.579466

 Applying Cartesian multipole field
    Component          Value
    ---------          -----
     (2,0,0)        1.00000E-12
     (0,2,0)        2.00000E-11
     (0,0,2)       -3.00000E-11
 Nucleus-field energy     =    -0.0000000008 hartrees
 ENuRep (before)= 105.5094723269
 ENucField = -0.0000000008
 ENuRep (after) = 105.5094723261
 Job number = 2, Threshold = 1.00E-11
Integral type ranges set in mkLRange.C for JobNum: 2  <1-6|1-6>
Symmetry turned off temporarily
Symmetry turned back on
 Job number = 11, Threshold = 1.00E-11
Integral type ranges set in mkLRange.C for JobNum: 11  <1-6|7-7>
 Smallest overlap matrix eigenvalue = 1.37E-01
 Multipole matrices computed through 2nd order
 Guess from superposition of atomic densities
 Warning:  Energy on first SCF cycle will be non-variational
 SAD guess density has 30.000000 electrons
 SCF convergence criterion is 10**(-8)
 A restricted Hartree-Fock SCF calculation will be
 performed using Pulay DIIS extrapolation
 SCF converges when DIIS error is below 1.0E-08
Finding J and K together
 Job number = 22, Threshold = 1.00E-11
Integral type ranges set in mkLRange.C for JobNum: 22  <1-6|1-6>
 MakeJK  time:  CPU       0.14 s  wall       0.18 s
Fock build time:  0.14 s (CPU) 0.18 s (wall)
DIIS Errors:  Max 1.36E+00 RMS 2.42E-01

Current DIIS subspace size = 1
REM_GRID_RESTART_DIIS = 0

 ---------------------------------------
  Cycle       Energy         DIIS Error
 ---------------------------------------
    1    -152.7615120205      2.42E-01  00000
Finding J and K together
 Job number = 22, Threshold = 1.00E-11
Integral type ranges set in mkLRange.C for JobNum: 22  <1-6|1-6>
 MakeJK  time:  CPU       0.20 s  wall       0.22 s
Fock build time:  0.20 s (CPU) 0.22 s (wall)
DIIS Errors:  Max 8.20E-02 RMS 1.57E-02

Current DIIS subspace size = 2
REM_GRID_RESTART_DIIS = 0

    2    -152.3781290633      1.57E-02  00000
Finding J and K together
 Job number = 22, Threshold = 1.00E-11
Integral type ranges set in mkLRange.C for JobNum: 22  <1-6|1-6>
 MakeJK  time:  CPU       0.19 s  wall       0.19 s
Fock build time:  0.20 s (CPU) 0.19 s (wall)
DIIS Errors:  Max 4.32E-02 RMS 7.33E-03

Current DIIS subspace size = 3
REM_GRID_RESTART_DIIS = 0

    3    -152.4158634125      7.33E-03  00000
Finding J and K together
 Job number = 22, Threshold = 1.00E-11
Integral type ranges set in mkLRange.C for JobNum: 22  <1-6|1-6>
 MakeJK  time:  CPU       0.17 s  wall       0.17 s
Fock build time:  0.17 s (CPU) 0.17 s (wall)
DIIS Errors:  Max 1.72E-02 RMS 2.90E-03

Current DIIS subspace size = 4
REM_GRID_RESTART_DIIS = 0

    4    -152.4223333196      2.90E-03  00000
Finding J and K together
 Job number = 22, Threshold = 1.00E-11
Integral type ranges set in mkLRange.C for JobNum: 22  <1-6|1-6>
 MakeJK  time:  CPU       0.16 s  wall       0.16 s
Fock build time:  0.16 s (CPU) 0.16 s (wall)
DIIS Errors:  Max 2.51E-03 RMS 5.48E-04

Current DIIS subspace size = 5
REM_GRID_RESTART_DIIS = 0

    5    -152.4237630887      5.48E-04  00000
Finding J and K together
 Job number = 22, Threshold = 1.00E-11
Integral type ranges set in mkLRange.C for JobNum: 22  <1-6|1-6>
 MakeJK  time:  CPU       0.12 s  wall       0.12 s
Fock build time:  0.12 s (CPU) 0.12 s (wall)
DIIS Errors:  Max 1.66E-03 RMS 2.79E-04

Current DIIS subspace size = 6
REM_GRID_RESTART_DIIS = 0

    6    -152.4238315699      2.79E-04  00000
Finding J and K together
 Job number = 22, Threshold = 1.00E-11
Integral type ranges set in mkLRange.C for JobNum: 22  <1-6|1-6>
 MakeJK  time:  CPU       0.14 s  wall       0.14 s
Fock build time:  0.14 s (CPU) 0.14 s (wall)
DIIS Errors:  Max 8.78E-04 RMS 1.37E-04

Current DIIS subspace size = 7
REM_GRID_RESTART_DIIS = 0

    7    -152.4238547263      1.37E-04  00000
Finding J and K together
 Job number = 22, Threshold = 1.00E-11
Integral type ranges set in mkLRange.C for JobNum: 22  <1-6|1-6>
 MakeJK  time:  CPU       0.12 s  wall       0.12 s
Fock build time:  0.12 s (CPU) 0.12 s (wall)
DIIS Errors:  Max 3.74E-04 RMS 5.38E-05

Current DIIS subspace size = 8
REM_GRID_RESTART_DIIS = 0

    8    -152.4238639688      5.38E-05  00000
Finding J and K together
 Job number = 22, Threshold = 1.00E-11
Integral type ranges set in mkLRange.C for JobNum: 22  <1-6|1-6>
 MakeJK  time:  CPU       0.13 s  wall       0.13 s
Fock build time:  0.13 s (CPU) 0.13 s (wall)
DIIS Errors:  Max 8.68E-05 RMS 1.49E-05

Current DIIS subspace size = 9
REM_GRID_RESTART_DIIS = 0

    9    -152.4238650563      1.49E-05  00000
Finding J and K together
 Job number = 22, Threshold = 1.00E-11
Integral type ranges set in mkLRange.C for JobNum: 22  <1-6|1-6>
 MakeJK  time:  CPU       0.17 s  wall       0.17 s
Fock build time:  0.17 s (CPU) 0.17 s (wall)
DIIS Errors:  Max 4.35E-05 RMS 7.16E-06

Current DIIS subspace size = 10
REM_GRID_RESTART_DIIS = 0

   10    -152.4238651958      7.16E-06  00000
Finding J and K together
 Job number = 22, Threshold = 1.00E-11
Integral type ranges set in mkLRange.C for JobNum: 22  <1-6|1-6>
 MakeJK  time:  CPU       0.15 s  wall       0.15 s
Fock build time:  0.15 s (CPU) 0.15 s (wall)
DIIS Errors:  Max 1.21E-05 RMS 2.27E-06

Current DIIS subspace size = 11
REM_GRID_RESTART_DIIS = 0

   11    -152.4238652294      2.27E-06  00000
Finding J and K together
 Job number = 22, Threshold = 1.00E-11
Integral type ranges set in mkLRange.C for JobNum: 22  <1-6|1-6>
 MakeJK  time:  CPU       0.15 s  wall       0.15 s
Fock build time:  0.15 s (CPU) 0.15 s (wall)
DIIS Errors:  Max 2.44E-06 RMS 4.00E-07

Current DIIS subspace size = 12
REM_GRID_RESTART_DIIS = 0

   12    -152.4238652328      4.00E-07  00000
Finding J and K together
 Job number = 22, Threshold = 1.00E-11
Integral type ranges set in mkLRange.C for JobNum: 22  <1-6|1-6>
 MakeJK  time:  CPU       0.13 s  wall       0.14 s
Fock build time:  0.13 s (CPU) 0.14 s (wall)
DIIS Errors:  Max 6.81E-07 RMS 9.99E-08

Current DIIS subspace size = 13
REM_GRID_RESTART_DIIS = 0

   13    -152.4238652329      9.99E-08  00000
Finding J and K together
 Job number = 22, Threshold = 1.00E-11
Integral type ranges set in mkLRange.C for JobNum: 22  <1-6|1-6>
 MakeJK  time:  CPU       0.19 s  wall       0.19 s
Fock build time:  0.19 s (CPU) 0.19 s (wall)
DIIS Errors:  Max 1.59E-07 RMS 2.79E-08

Current DIIS subspace size = 14
REM_GRID_RESTART_DIIS = 0

   14    -152.4238652329      2.79E-08  00000
Finding J and K together
 Job number = 22, Threshold = 1.00E-11
Integral type ranges set in mkLRange.C for JobNum: 22  <1-6|1-6>
 MakeJK  time:  CPU       0.19 s  wall       0.19 s
Fock build time:  0.19 s (CPU) 0.19 s (wall)
DIIS Errors:  Max 2.85E-08 RMS 4.61E-09

Current DIIS subspace size = 15
REM_GRID_RESTART_DIIS = 0

   15    -152.4238652329      4.61E-09  00000 Convergence criterion met
 ---------------------------------------
 SCF time:  CPU 2.37 s  wall 2.44 s
 SCF   energy in the final basis set = -152.42386523
 Total energy in the final basis set = -152.42386523
drvman_main.C: 73: calling DrvMan  Calculating analytic gradient of the SCF energy
drvman.C : 218: Calculating analytic gradient of the SCF energy
drvman.C: 244: calling SCF_Grad for normal SCF gradient
 Job number = 111, Threshold = 1.00E-11
Integral type ranges set in mkLRange.C for JobNum: 11  <1-6|7-7>
 Warning:  Cost of integrals step H3 set to -1926162077
 Warning:  Retrieved cost of -1926162077 for integrals step H3
 Warning:  Retrieved cost of -1926162077 for integrals step H3
 Warning:  Retrieved cost of -1926162077 for integrals step H3
Finding J and K together
 ML is being used
 Job number = 122, Threshold = 1.00E-11
Integral type ranges set in mkLRange.C for JobNum: 22  <1-6|1-6>
 MakeJK  time:  CPU       0.46 s  wall       0.46 s
 Gradient of SCF Energy
            1           2           3           4           5           6
    1  -0.1615098  -0.0912952  -0.0027320  -0.0303763   0.2624234   0.0723115
    2   0.0593901  -0.2950726  -0.0123085   0.1373960   0.0652999   0.0188727
    3  -0.1468638  -0.0393052   0.0991060   0.0265576   0.1709742   0.0666081
            7           8           9          10
    1  -0.1233123   0.0067351   0.0304229   0.0373327
    2   0.0052390  -0.0151024   0.0267933   0.0094927
    3  -0.0811129  -0.0091636  -0.1091094   0.0223090
 Max gradient component =       2.951E-01
 RMS gradient           =       1.047E-01
drvman.C: 248: out of SCF_Grad for normal SCF gradient
 Gradient time:  CPU 0.48 s  wall 0.48 s
 ------------------------------------------------------------------------------
                     drvman        : Timing summary (seconds)
 ------------------------------------------------------------------------------
     job step          cpu (% of tot)      sys (% of tot)     wall (% of tot)
 ------------------------------------------------------------------------------
 ------------------------------------------------------------------------------
   Grand Totals     0.4760E+00          0.2000E-05          0.4847E+00
 ------------------------------------------------------------------------------
drvman_main.C: 77: out of DrvMan  Time for this dynamics step: 2.9 s (CPU) 3.0 s (wall)

TIME STEP #2 (t = 20.000 a.u. = 0.48378 fs)
--------------------------------------
 Instantaneous Temperature = 675.7 K
 ----------------------------------------------------------------
             Standard Nuclear Orientation (Angstroms)
    I     Atom           X                Y                Z
 ----------------------------------------------------------------
    1      C       5.4276004143    -0.8560970794    -0.5700263017
    2      C       4.3136641143    -0.3426209141    -0.6088290820
    3      H       6.0355506392    -0.6718956255     0.4458920807
    4      H       5.5041343697    -1.7391232543    -1.0392681026
    5      C       3.1780286680    -0.3164258589    -1.1844439821
    6      C       2.0887312808     0.4580981913    -1.1692980381
    7      H       0.5004984852     0.4210756093    -2.2744560277
    8      H       1.9787848016     1.2376568310    -0.4794860516
    9      H       4.7934885153     0.8228547848    -1.3259736009
   10      H       3.2293308976    -1.1219030789    -1.9054134029
 ----------------------------------------------------------------
 Nuclear Repulsion Energy =   105.4366020785 hartrees
 There are       15 alpha and       15 beta electrons

                       Distance Matrix (Angstroms)
             C (  1)   C (  2)   H (  3)   H (  4)   C (  5)   C (  6)
   C (  2)  1.227199
   H (  3)  1.198175  2.045911
   H (  4)  1.002886  1.884865  1.904489
   C (  5)  2.393601  1.273455  3.309046  2.730552
   C (  6)  3.637895  2.430145  4.411701  4.063209  1.336670
   H (  7)  5.367735  4.230577  6.263520  5.588248  2.983488  1.935259
   H (  8)  4.035633  2.822352  4.578216  4.647867  2.085743  1.046728
   H (  9)  1.947417  1.450125  2.629925  2.674126  1.981843  2.733735
   H ( 10)  2.585788  1.861233  3.688633  2.511155  1.082230  2.083084
             H (  7)   H (  8)   H (  9)
   H (  8)  2.464559
   H (  9)  4.414840  2.968360
   H ( 10)  3.156502  3.027319  2.562113

 Applying Cartesian multipole field
    Component          Value
    ---------          -----
     (2,0,0)        1.00000E-12
     (0,2,0)        2.00000E-11
     (0,0,2)       -3.00000E-11
 Nucleus-field energy     =    -0.0000000008 hartrees
 ENuRep (before)= 105.4366020785
 ENucField = -0.0000000008
 ENuRep (after) = 105.4366020777
 Job number = 2, Threshold = 1.00E-11
Integral type ranges set in mkLRange.C for JobNum: 2  <1-6|1-6>
Symmetry turned off temporarily
Symmetry turned back on
 Job number = 11, Threshold = 1.00E-11
Integral type ranges set in mkLRange.C for JobNum: 11  <1-6|7-7>
 Smallest overlap matrix eigenvalue = 1.40E-01
 Multipole matrices computed through 2nd order
 Guess from superposition of atomic densities
 Warning:  Energy on first SCF cycle will be non-variational
 SAD guess density has 30.000000 electrons
 SCF convergence criterion is 10**(-8)
 A restricted Hartree-Fock SCF calculation will be
 performed using Pulay DIIS extrapolation
 SCF converges when DIIS error is below 1.0E-08
Finding J and K together
 Job number = 22, Threshold = 1.00E-11
Integral type ranges set in mkLRange.C for JobNum: 22  <1-6|1-6>
 MakeJK  time:  CPU       0.14 s  wall       0.16 s
Fock build time:  0.14 s (CPU) 0.16 s (wall)
DIIS Errors:  Max 1.35E+00 RMS 2.41E-01

Current DIIS subspace size = 1
REM_GRID_RESTART_DIIS = 0

 ---------------------------------------
  Cycle       Energy         DIIS Error
 ---------------------------------------
    1    -152.7626251660      2.41E-01  00000
Finding J and K together
 Job number = 22, Threshold = 1.00E-11
Integral type ranges set in mkLRange.C for JobNum: 22  <1-6|1-6>
 MakeJK  time:  CPU       0.20 s  wall       0.20 s
Fock build time:  0.20 s (CPU) 0.20 s (wall)
DIIS Errors:  Max 7.67E-02 RMS 1.53E-02

Current DIIS subspace size = 2
REM_GRID_RESTART_DIIS = 0

    2    -152.4056597829      1.53E-02  00000
Finding J and K together
 Job number = 22, Threshold = 1.00E-11
Integral type ranges set in mkLRange.C for JobNum: 22  <1-6|1-6>
 MakeJK  time:  CPU       0.20 s  wall       0.20 s
Fock build time:  0.20 s (CPU) 0.20 s (wall)
DIIS Errors:  Max 3.95E-02 RMS 6.65E-03

Current DIIS subspace size = 3
REM_GRID_RESTART_DIIS = 0

    3    -152.4423468780      6.65E-03  00000
Finding J and K together
 Job number = 22, Threshold = 1.00E-11
Integral type ranges set in mkLRange.C for JobNum: 22  <1-6|1-6>
 MakeJK  time:  CPU       0.20 s  wall       0.20 s
Fock build time:  0.20 s (CPU) 0.20 s (wall)
DIIS Errors:  Max 1.66E-02 RMS 2.81E-03

Current DIIS subspace size = 4
REM_GRID_RESTART_DIIS = 0

    4    -152.4476931430      2.81E-03  00000
Finding J and K together
 Job number = 22, Threshold = 1.00E-11
Integral type ranges set in mkLRange.C for JobNum: 22  <1-6|1-6>
 MakeJK  time:  CPU       0.20 s  wall       0.20 s
Fock build time:  0.20 s (CPU) 0.20 s (wall)
DIIS Errors:  Max 2.25E-03 RMS 4.97E-04

Current DIIS subspace size = 5
REM_GRID_RESTART_DIIS = 0

    5    -152.4489833290      4.97E-04  00000
Finding J and K together
 Job number = 22, Threshold = 1.00E-11
Integral type ranges set in mkLRange.C for JobNum: 22  <1-6|1-6>
 MakeJK  time:  CPU       0.14 s  wall       0.14 s
Fock build time:  0.14 s (CPU) 0.14 s (wall)
DIIS Errors:  Max 1.41E-03 RMS 2.42E-04

Current DIIS subspace size = 6
REM_GRID_RESTART_DIIS = 0

    6    -152.4490381698      2.42E-04  00000
Finding J and K together
 Job number = 22, Threshold = 1.00E-11
Integral type ranges set in mkLRange.C for JobNum: 22  <1-6|1-6>
 MakeJK  time:  CPU       0.15 s  wall       0.15 s
Fock build time:  0.15 s (CPU) 0.15 s (wall)
DIIS Errors:  Max 7.22E-04 RMS 1.20E-04

Current DIIS subspace size = 7
REM_GRID_RESTART_DIIS = 0

    7    -152.4490561503      1.20E-04  00000
Finding J and K together
 Job number = 22, Threshold = 1.00E-11
Integral type ranges set in mkLRange.C for JobNum: 22  <1-6|1-6>
 MakeJK  time:  CPU       0.14 s  wall       0.14 s
Fock build time:  0.14 s (CPU) 0.14 s (wall)
DIIS Errors:  Max 3.29E-04 RMS 4.80E-05

Current DIIS subspace size = 8
REM_GRID_RESTART_DIIS = 0

    8    -152.4490626296      4.80E-05  00000
Finding J and K together
 Job number = 22, Threshold = 1.00E-11
Integral type ranges set in mkLRange.C for JobNum: 22  <1-6|1-6>
 MakeJK  time:  CPU       0.16 s  wall       0.17 s
Fock build time:  0.16 s (CPU) 0.17 s (wall)
DIIS Errors:  Max 7.92E-05 RMS 1.33E-05

Current DIIS subspace size = 9
REM_GRID_RESTART_DIIS = 0

    9    -152.4490634536      1.33E-05  00000
Finding J and K together
 Job number = 22, Threshold = 1.00E-11
Integral type ranges set in mkLRange.C for JobNum: 22  <1-6|1-6>
 MakeJK  time:  CPU       0.15 s  wall       0.16 s
Fock build time:  0.15 s (CPU) 0.16 s (wall)
DIIS Errors:  Max 3.75E-05 RMS 6.34E-06

Current DIIS subspace size = 10
REM_GRID_RESTART_DIIS = 0

   10    -152.4490635611      6.34E-06  00000
Finding J and K together
 Job number = 22, Threshold = 1.00E-11
Integral type ranges set in mkLRange.C for JobNum: 22  <1-6|1-6>
 MakeJK  time:  CPU       0.15 s  wall       0.15 s
Fock build time:  0.15 s (CPU) 0.15 s (wall)
DIIS Errors:  Max 1.05E-05 RMS 2.04E-06

Current DIIS subspace size = 11
REM_GRID_RESTART_DIIS = 0

   11    -152.4490635864      2.04E-06  00000
Finding J and K together
 Job number = 22, Threshold = 1.00E-11
Integral type ranges set in mkLRange.C for JobNum: 22  <1-6|1-6>
 MakeJK  time:  CPU       0.13 s  wall       0.14 s
Fock build time:  0.13 s (CPU) 0.14 s (wall)
DIIS Errors:  Max 1.98E-06 RMS 3.45E-07

Current DIIS subspace size = 12
REM_GRID_RESTART_DIIS = 0

   12    -152.4490635891      3.45E-07  00000
Finding J and K together
 Job number = 22, Threshold = 1.00E-11
Integral type ranges set in mkLRange.C for JobNum: 22  <1-6|1-6>
 MakeJK  time:  CPU       0.16 s  wall       0.17 s
Fock build time:  0.16 s (CPU) 0.17 s (wall)
DIIS Errors:  Max 5.45E-07 RMS 8.09E-08

Current DIIS subspace size = 13
REM_GRID_RESTART_DIIS = 0

   13    -152.4490635892      8.09E-08  00000
Finding J and K together
 Job number = 22, Threshold = 1.00E-11
Integral type ranges set in mkLRange.C for JobNum: 22  <1-6|1-6>
 MakeJK  time:  CPU       0.15 s  wall       0.16 s
Fock build time:  0.15 s (CPU) 0.16 s (wall)
DIIS Errors:  Max 1.29E-07 RMS 2.26E-08

Current DIIS subspace size = 14
REM_GRID_RESTART_DIIS = 0

   14    -152.4490635892      2.26E-08  00000
Finding J and K together
 Job number = 22, Threshold = 1.00E-11
Integral type ranges set in mkLRange.C for JobNum: 22  <1-6|1-6>
 MakeJK  time:  CPU       0.17 s  wall       0.17 s
Fock build time:  0.17 s (CPU) 0.17 s (wall)
DIIS Errors:  Max 2.38E-08 RMS 3.75E-09

Current DIIS subspace size = 15
REM_GRID_RESTART_DIIS = 0

   15    -152.4490635892      3.75E-09  00000 Convergence criterion met
 ---------------------------------------
 SCF time:  CPU 2.46 s  wall 2.55 s
 SCF   energy in the final basis set = -152.44906359
 Total energy in the final basis set = -152.44906359
drvman_main.C: 73: calling DrvMan  Calculating analytic gradient of the SCF energy
drvman.C : 218: Calculating analytic gradient of the SCF energy
drvman.C: 244: calling SCF_Grad for normal SCF gradient
 Job number = 111, Threshold = 1.00E-11
Integral type ranges set in mkLRange.C for JobNum: 11  <1-6|7-7>
Finding J and K together
 ML is being used
 Job number = 122, Threshold = 1.00E-11
Integral type ranges set in mkLRange.C for JobNum: 22  <1-6|1-6>
 MakeJK  time:  CPU       0.47 s  wall       0.54 s
 Gradient of SCF Energy
            1           2           3           4           5           6
    1  -0.1530768  -0.0897684  -0.0035821  -0.0274000   0.2513608   0.0724060
    2   0.0841496  -0.2939825  -0.0135011   0.1117068   0.0651650   0.0395768
    3  -0.1258626  -0.0332413   0.0932984   0.0125035   0.1652613   0.0843646
            7           8           9          10
    1  -0.1255743   0.0094789   0.0297439   0.0364121
    2   0.0042548  -0.0351576   0.0266417   0.0111466
    3  -0.0822607  -0.0270647  -0.1102826   0.0232841
 Max gradient component =       2.940E-01
 RMS gradient           =       1.022E-01
drvman.C: 248: out of SCF_Grad for normal SCF gradient
 Gradient time:  CPU 0.49 s  wall 0.56 s
 ------------------------------------------------------------------------------
                     drvman        : Timing summary (seconds)
 ------------------------------------------------------------------------------
     job step          cpu (% of tot)      sys (% of tot)     wall (% of tot)
 ------------------------------------------------------------------------------
 ------------------------------------------------------------------------------
   Grand Totals     0.4920E+00          0.3000E-05          0.5617E+00
 ------------------------------------------------------------------------------
drvman_main.C: 77: out of DrvMan  Time for this dynamics step: 3.0 s (CPU) 3.2 s (wall)

TIME STEP #3 (t = 40.000 a.u. = 0.96755 fs)
--------------------------------------
 Instantaneous Temperature = 1202.4 K
 ----------------------------------------------------------------
             Standard Nuclear Orientation (Angstroms)
    I     Atom           X                Y                Z
 ----------------------------------------------------------------
    1      C       5.4355233016    -0.8570372404    -0.5629709721
    2      C       4.3163565288    -0.3402989999    -0.6071917938
    3      H       6.0521160623    -0.6701338253     0.4177643180
    4      H       5.5070634071    -1.7694154425    -1.0484927007
    5      C       3.1704560270    -0.3150152976    -1.1865123478
    6      C       2.0847314201     0.4603130098    -1.1748156820
    7      H       0.5351147177     0.4095763847    -2.2543535069
    8      H       1.9656320787     1.2218159942    -0.4973978893
    9      H       4.7730781864     0.8099691149    -1.2950884596
   10      H       3.2201804164    -1.1127657413    -1.9143129973
 ----------------------------------------------------------------
 Nuclear Repulsion Energy =   105.2920480597 hartrees
 There are       15 alpha and       15 beta electrons

                       Distance Matrix (Angstroms)
             C (  1)   C (  2)   H (  3)   H (  4)   C (  5)   C (  6)
   C (  2)  1.233494
   H (  3)  1.173440  2.042593
   H (  4)  1.035994  1.911780  1.911913
   C (  5)  2.411042  1.284266  3.317194  2.755733
   C (  6)  3.652064  2.437894  4.422031  4.086564  1.334192
   H (  7)  5.336580  4.192045  6.224411  5.560789  2.934338  1.889256
   H (  8)  4.045501  2.824564  4.595253  4.668287  2.070828  1.026141
   H (  9)  1.937457  1.415950  2.600098  2.693096  1.961065  2.713657
   H ( 10)  2.607540  1.872665  3.695182  2.531930  1.081005  2.076217
             H (  7)   H (  8)   H (  9)
   H (  8)  2.406866
   H (  9)  4.363581  2.947487
   H ( 10)  3.105275  3.005297  2.547909

 Applying Cartesian multipole field
    Component          Value
    ---------          -----
     (2,0,0)        1.00000E-12
     (0,2,0)        2.00000E-11
     (0,0,2)       -3.00000E-11
 Nucleus-field energy     =    -0.0000000008 hartrees
 ENuRep (before)= 105.2920480597
 ENucField = -0.0000000008
 ENuRep (after) = 105.2920480589
 Job number = 2, Threshold = 1.00E-11
Integral type ranges set in mkLRange.C for JobNum: 2  <1-6|1-6>
Symmetry turned off temporarily
Symmetry turned back on
 Job number = 11, Threshold = 1.00E-11
Integral type ranges set in mkLRange.C for JobNum: 11  <1-6|7-7>
 Smallest overlap matrix eigenvalue = 1.43E-01
 Multipole matrices computed through 2nd order
 Guess from superposition of atomic densities
 Warning:  Energy on first SCF cycle will be non-variational
 SAD guess density has 30.000000 electrons
 SCF convergence criterion is 10**(-8)
 A restricted Hartree-Fock SCF calculation will be
 performed using Pulay DIIS extrapolation
 SCF converges when DIIS error is below 1.0E-08
Finding J and K together
 Job number = 22, Threshold = 1.00E-11
Integral type ranges set in mkLRange.C for JobNum: 22  <1-6|1-6>
 MakeJK  time:  CPU       0.13 s  wall       0.15 s
Fock build time:  0.13 s (CPU) 0.15 s (wall)
DIIS Errors:  Max 1.34E+00 RMS 2.39E-01

Current DIIS subspace size = 1
REM_GRID_RESTART_DIIS = 0

 ---------------------------------------
  Cycle       Energy         DIIS Error
 ---------------------------------------
    1    -152.7511124074      2.39E-01  00000
Finding J and K together
 Job number = 22, Threshold = 1.00E-11
Integral type ranges set in mkLRange.C for JobNum: 22  <1-6|1-6>
 MakeJK  time:  CPU       0.16 s  wall       0.16 s
Fock build time:  0.16 s (CPU) 0.16 s (wall)
DIIS Errors:  Max 6.99E-02 RMS 1.48E-02

Current DIIS subspace size = 2
REM_GRID_RESTART_DIIS = 0

    2    -152.4484193072      1.48E-02  00000
Finding J and K together
 Job number = 22, Threshold = 1.00E-11
Integral type ranges set in mkLRange.C for JobNum: 22  <1-6|1-6>
 MakeJK  time:  CPU       0.19 s  wall       0.22 s
Fock build time:  0.19 s (CPU) 0.22 s (wall)
DIIS Errors:  Max 3.49E-02 RMS 5.79E-03

Current DIIS subspace size = 3
REM_GRID_RESTART_DIIS = 0

    3    -152.4835473541      5.79E-03  00000
Finding J and K together
 Job number = 22, Threshold = 1.00E-11
Integral type ranges set in mkLRange.C for JobNum: 22  <1-6|1-6>
 MakeJK  time:  CPU       0.19 s  wall       0.23 s
Fock build time:  0.19 s (CPU) 0.23 s (wall)
DIIS Errors:  Max 1.56E-02 RMS 2.62E-03

Current DIIS subspace size = 4
REM_GRID_RESTART_DIIS = 0

    4    -152.4876860921      2.62E-03  00000
Finding J and K together
 Job number = 22, Threshold = 1.00E-11
Integral type ranges set in mkLRange.C for JobNum: 22  <1-6|1-6>
 MakeJK  time:  CPU       0.16 s  wall       0.17 s
Fock build time:  0.16 s (CPU) 0.17 s (wall)
DIIS Errors:  Max 1.90E-03 RMS 4.27E-04

Current DIIS subspace size = 5
REM_GRID_RESTART_DIIS = 0

    5    -152.4887512944      4.27E-04  00000
Finding J and K together
 Job number = 22, Threshold = 1.00E-11
Integral type ranges set in mkLRange.C for JobNum: 22  <1-6|1-6>
 MakeJK  time:  CPU       0.18 s  wall       0.18 s
Fock build time:  0.18 s (CPU) 0.18 s (wall)
DIIS Errors:  Max 1.02E-03 RMS 1.88E-04

Current DIIS subspace size = 6
REM_GRID_RESTART_DIIS = 0

    6    -152.4887891426      1.88E-04  00000
Finding J and K together
 Job number = 22, Threshold = 1.00E-11
Integral type ranges set in mkLRange.C for JobNum: 22  <1-6|1-6>
 MakeJK  time:  CPU       0.14 s  wall       0.14 s
Fock build time:  0.14 s (CPU) 0.14 s (wall)
DIIS Errors:  Max 4.74E-04 RMS 9.23E-05

Current DIIS subspace size = 7
REM_GRID_RESTART_DIIS = 0

    7    -152.4888005489      9.23E-05  00000
Finding J and K together
 Job number = 22, Threshold = 1.00E-11
Integral type ranges set in mkLRange.C for JobNum: 22  <1-6|1-6>
 MakeJK  time:  CPU       0.18 s  wall       0.18 s
Fock build time:  0.18 s (CPU) 0.19 s (wall)
DIIS Errors:  Max 2.50E-04 RMS 3.76E-05

Current DIIS subspace size = 8
REM_GRID_RESTART_DIIS = 0

    8    -152.4888037401      3.76E-05  00000
Finding J and K together
 Job number = 22, Threshold = 1.00E-11
Integral type ranges set in mkLRange.C for JobNum: 22  <1-6|1-6>
 MakeJK  time:  CPU       0.16 s  wall       0.16 s
Fock build time:  0.16 s (CPU) 0.16 s (wall)
DIIS Errors:  Max 6.42E-05 RMS 1.02E-05

Current DIIS subspace size = 9
REM_GRID_RESTART_DIIS = 0

    9    -152.4888041936      1.02E-05  00000
Finding J and K together
 Job number = 22, Threshold = 1.00E-11
Integral type ranges set in mkLRange.C for JobNum: 22  <1-6|1-6>
 MakeJK  time:  CPU       0.12 s  wall       0.13 s
Fock build time:  0.13 s (CPU) 0.13 s (wall)
DIIS Errors:  Max 2.72E-05 RMS 4.75E-06

Current DIIS subspace size = 10
REM_GRID_RESTART_DIIS = 0

   10    -152.4888042529      4.75E-06  00000
Finding J and K together
 Job number = 22, Threshold = 1.00E-11
Integral type ranges set in mkLRange.C for JobNum: 22  <1-6|1-6>
 MakeJK  time:  CPU       0.16 s  wall       0.16 s
Fock build time:  0.16 s (CPU) 0.16 s (wall)
DIIS Errors:  Max 7.96E-06 RMS 1.64E-06

Current DIIS subspace size = 11
REM_GRID_RESTART_DIIS = 0

   11    -152.4888042658      1.64E-06  00000
Finding J and K together
 Job number = 22, Threshold = 1.00E-11
Integral type ranges set in mkLRange.C for JobNum: 22  <1-6|1-6>
 MakeJK  time:  CPU       0.15 s  wall       0.15 s
Fock build time:  0.15 s (CPU) 0.15 s (wall)
DIIS Errors:  Max 1.31E-06 RMS 2.72E-07

Current DIIS subspace size = 12
REM_GRID_RESTART_DIIS = 0

   12    -152.4888042675      2.72E-07  00000
Finding J and K together
 Job number = 22, Threshold = 1.00E-11
Integral type ranges set in mkLRange.C for JobNum: 22  <1-6|1-6>
 MakeJK  time:  CPU       0.15 s  wall       0.15 s
Fock build time:  0.15 s (CPU) 0.15 s (wall)
DIIS Errors:  Max 3.59E-07 RMS 5.64E-08

Current DIIS subspace size = 13
REM_GRID_RESTART_DIIS = 0

   13    -152.4888042676      5.64E-08  00000
Finding J and K together
 Job number = 22, Threshold = 1.00E-11
Integral type ranges set in mkLRange.C for JobNum: 22  <1-6|1-6>
 MakeJK  time:  CPU       0.16 s  wall       0.16 s
Fock build time:  0.16 s (CPU) 0.16 s (wall)
DIIS Errors:  Max 8.75E-08 RMS 1.54E-08

Current DIIS subspace size = 14
REM_GRID_RESTART_DIIS = 0

   14    -152.4888042676      1.54E-08  00000
Finding J and K together
 Job number = 22, Threshold = 1.00E-11
Integral type ranges set in mkLRange.C for JobNum: 22  <1-6|1-6>
 MakeJK  time:  CPU       0.17 s  wall       0.17 s
Fock build time:  0.17 s (CPU) 0.17 s (wall)
DIIS Errors:  Max 1.66E-08 RMS 2.62E-09

Current DIIS subspace size = 15
REM_GRID_RESTART_DIIS = 0

   15    -152.4888042676      2.62E-09  00000 Convergence criterion met
 ---------------------------------------
 SCF time:  CPU 2.45 s  wall 2.56 s
 SCF   energy in the final basis set = -152.48880427
 Total energy in the final basis set = -152.48880427
drvman_main.C: 73: calling DrvMan  Calculating analytic gradient of the SCF energy
drvman.C : 218: Calculating analytic gradient of the SCF energy
drvman.C: 244: calling SCF_Grad for normal SCF gradient
 Job number = 111, Threshold = 1.00E-11
Integral type ranges set in mkLRange.C for JobNum: 11  <1-6|7-7>
Finding J and K together
 ML is being used
 Job number = 122, Threshold = 1.00E-11
Integral type ranges set in mkLRange.C for JobNum: 22  <1-6|1-6>
 MakeJK  time:  CPU       0.38 s  wall       0.40 s
 Gradient of SCF Energy
            1           2           3           4           5           6
    1  -0.1383569  -0.0873885  -0.0074096  -0.0230121   0.2340071   0.0753790
    2   0.1173309  -0.2906020  -0.0153436   0.0756179   0.0670010   0.0564398
    3  -0.0949610  -0.0232758   0.0825554  -0.0066715   0.1572208   0.1006112
            7           8           9          10
    1  -0.1288749   0.0118742   0.0290591   0.0347226
    2   0.0032547  -0.0522137   0.0266596   0.0118556
    3  -0.0840394  -0.0425906  -0.1116494   0.0228003
 Max gradient component =       2.906E-01
 RMS gradient           =       9.919E-02
drvman.C: 248: out of SCF_Grad for normal SCF gradient
 Gradient time:  CPU 0.40 s  wall 0.42 s
 ------------------------------------------------------------------------------
                     drvman        : Timing summary (seconds)
 ------------------------------------------------------------------------------
     job step          cpu (% of tot)      sys (% of tot)     wall (% of tot)
 ------------------------------------------------------------------------------
 ------------------------------------------------------------------------------
   Grand Totals     0.3960E+00          0.2000E-05          0.4198E+00
 ------------------------------------------------------------------------------
drvman_main.C: 77: out of DrvMan  Time for this dynamics step: 2.9 s (CPU) 3.1 s (wall)

TIME STEP #4 (t = 60.000 a.u. = 1.45133 fs)
--------------------------------------
 Instantaneous Temperature = 2035.8 K
 ----------------------------------------------------------------
             Standard Nuclear Orientation (Angstroms)
    I     Atom           X                Y                Z
 ----------------------------------------------------------------
    1      C       5.4447850041    -0.8591127576    -0.5549967491
    2      C       4.3198945613    -0.3351650656    -0.6053292771
    3      H       6.0695351880    -0.6666041900     0.3801248329
    4      H       5.5126438113    -1.8084200418    -1.0569486375
    5      C       3.1606190088    -0.3142530738    -1.1901020653
    6      C       2.0800021518     0.4619816872    -1.1813068931
    7      H       0.5845794321     0.3977021704    -2.2245682847
    8      H       1.9511112534     1.2119910276    -0.5104026001
    9      H       4.7493197821     0.7940118282    -1.2513394924
   10      H       3.2070293237    -1.1049943588    -1.9258395530
 ----------------------------------------------------------------
 Nuclear Repulsion Energy =   105.0982292963 hartrees
 There are       15 alpha and       15 beta electrons

                       Distance Matrix (Angstroms)
             C (  1)   C (  2)   H (  3)   H (  4)   C (  5)   C (  6)
   C (  2)  1.241947
   H (  3)  1.140975  2.035243
   H (  4)  1.075986  1.948613  1.918085
   C (  5)  2.432621  1.298582  3.324388  2.789675
   C (  6)  3.668694  2.446285  4.430367  4.117429  1.330545
   H (  7)  5.290430  4.136618  6.164569  5.524141  2.865830  1.824504
   H (  8)  4.061676  2.830872  4.613412  4.701713  2.062601  1.014514
   H (  9)  1.923899  1.369955  2.556960  2.719026  1.938033  2.690800
   H ( 10)  2.635758  1.890728  3.701837  2.562350  1.081081  2.068800
             H (  7)   H (  8)   H (  9)
   H (  8)  2.338555
   H (  9)  4.295265  2.924665
   H ( 10)  3.037199  2.991524  2.537683

 Applying Cartesian multipole field
    Component          Value
    ---------          -----
     (2,0,0)        1.00000E-12
     (0,2,0)        2.00000E-11
     (0,0,2)       -3.00000E-11
 Nucleus-field energy     =    -0.0000000008 hartrees
 ENuRep (before)= 105.0982292963
 ENucField = -0.0000000008
 ENuRep (after) = 105.0982292956
 Job number = 2, Threshold = 1.00E-11
Integral type ranges set in mkLRange.C for JobNum: 2  <1-6|1-6>
Symmetry turned off temporarily
Symmetry turned back on
 Job number = 11, Threshold = 1.00E-11
Integral type ranges set in mkLRange.C for JobNum: 11  <1-6|7-7>
 Smallest overlap matrix eigenvalue = 1.48E-01
 Multipole matrices computed through 2nd order
 Guess from superposition of atomic densities
 Warning:  Energy on first SCF cycle will be non-variational
 SAD guess density has 30.000000 electrons
 SCF convergence criterion is 10**(-8)
 A restricted Hartree-Fock SCF calculation will be
 performed using Pulay DIIS extrapolation
 SCF converges when DIIS error is below 1.0E-08
Finding J and K together
 Job number = 22, Threshold = 1.00E-11
Integral type ranges set in mkLRange.C for JobNum: 22  <1-6|1-6>
 MakeJK  time:  CPU       0.10 s  wall       0.10 s
Fock build time:  0.10 s (CPU) 0.10 s (wall)
DIIS Errors:  Max 1.32E+00 RMS 2.36E-01

Current DIIS subspace size = 1
REM_GRID_RESTART_DIIS = 0

 ---------------------------------------
  Cycle       Energy         DIIS Error
 ---------------------------------------
    1    -152.7323140840      2.36E-01  00000
Finding J and K together
 Job number = 22, Threshold = 1.00E-11
Integral type ranges set in mkLRange.C for JobNum: 22  <1-6|1-6>
 MakeJK  time:  CPU       0.13 s  wall       0.14 s
Fock build time:  0.13 s (CPU) 0.14 s (wall)
DIIS Errors:  Max 6.27E-02 RMS 1.44E-02

Current DIIS subspace size = 2
REM_GRID_RESTART_DIIS = 0

    2    -152.5030925107      1.44E-02  00000
Finding J and K together
 Job number = 22, Threshold = 1.00E-11
Integral type ranges set in mkLRange.C for JobNum: 22  <1-6|1-6>
 MakeJK  time:  CPU       0.18 s  wall       0.19 s
Fock build time:  0.18 s (CPU) 0.19 s (wall)
DIIS Errors:  Max 3.01E-02 RMS 4.97E-03

Current DIIS subspace size = 3
REM_GRID_RESTART_DIIS = 0

    3    -152.5365567713      4.97E-03  00000
Finding J and K together
 Job number = 22, Threshold = 1.00E-11
Integral type ranges set in mkLRange.C for JobNum: 22  <1-6|1-6>
 MakeJK  time:  CPU       0.14 s  wall       0.14 s
Fock build time:  0.14 s (CPU) 0.14 s (wall)
DIIS Errors:  Max 1.36E-02 RMS 2.28E-03

Current DIIS subspace size = 4
REM_GRID_RESTART_DIIS = 0

    4    -152.5397965245      2.28E-03  00000
Finding J and K together
 Job number = 22, Threshold = 1.00E-11
Integral type ranges set in mkLRange.C for JobNum: 22  <1-6|1-6>
 MakeJK  time:  CPU       0.14 s  wall       0.14 s
Fock build time:  0.14 s (CPU) 0.14 s (wall)
DIIS Errors:  Max 1.54E-03 RMS 3.60E-04

Current DIIS subspace size = 5
REM_GRID_RESTART_DIIS = 0

    5    -152.5405617110      3.60E-04  00000
Finding J and K together
 Job number = 22, Threshold = 1.00E-11
Integral type ranges set in mkLRange.C for JobNum: 22  <1-6|1-6>
 MakeJK  time:  CPU       0.16 s  wall       0.16 s
Fock build time:  0.16 s (CPU) 0.16 s (wall)
DIIS Errors:  Max 6.09E-04 RMS 1.33E-04

Current DIIS subspace size = 6
REM_GRID_RESTART_DIIS = 0

    6    -152.5405858657      1.33E-04  00000
Finding J and K together
 Job number = 22, Threshold = 1.00E-11
Integral type ranges set in mkLRange.C for JobNum: 22  <1-6|1-6>
 MakeJK  time:  CPU       0.15 s  wall       0.15 s
Fock build time:  0.15 s (CPU) 0.15 s (wall)
DIIS Errors:  Max 3.02E-04 RMS 6.19E-05

Current DIIS subspace size = 7
REM_GRID_RESTART_DIIS = 0

    7    -152.5405921221      6.19E-05  00000
Finding J and K together
 Job number = 22, Threshold = 1.00E-11
Integral type ranges set in mkLRange.C for JobNum: 22  <1-6|1-6>
 MakeJK  time:  CPU       0.17 s  wall       0.17 s
Fock build time:  0.17 s (CPU) 0.17 s (wall)
DIIS Errors:  Max 1.57E-04 RMS 2.53E-05

Current DIIS subspace size = 8
REM_GRID_RESTART_DIIS = 0

    8    -152.5405931973      2.53E-05  00000
Finding J and K together
 Job number = 22, Threshold = 1.00E-11
Integral type ranges set in mkLRange.C for JobNum: 22  <1-6|1-6>
 MakeJK  time:  CPU       0.19 s  wall       0.19 s
Fock build time:  0.19 s (CPU) 0.19 s (wall)
DIIS Errors:  Max 4.06E-05 RMS 6.55E-06

Current DIIS subspace size = 9
REM_GRID_RESTART_DIIS = 0

    9    -152.5405933708      6.55E-06  00000
Finding J and K together
 Job number = 22, Threshold = 1.00E-11
Integral type ranges set in mkLRange.C for JobNum: 22  <1-6|1-6>
 MakeJK  time:  CPU       0.14 s  wall       0.13 s
Fock build time:  0.14 s (CPU) 0.13 s (wall)
DIIS Errors:  Max 1.60E-05 RMS 2.73E-06

Current DIIS subspace size = 10
REM_GRID_RESTART_DIIS = 0

   10    -152.5405933919      2.73E-06  00000
Finding J and K together
 Job number = 22, Threshold = 1.00E-11
Integral type ranges set in mkLRange.C for JobNum: 22  <1-6|1-6>
 MakeJK  time:  CPU       0.19 s  wall       0.19 s
Fock build time:  0.19 s (CPU) 0.19 s (wall)
DIIS Errors:  Max 5.88E-06 RMS 1.09E-06

Current DIIS subspace size = 11
REM_GRID_RESTART_DIIS = 0

   11    -152.5405933954      1.09E-06  00000
Finding J and K together
 Job number = 22, Threshold = 1.00E-11
Integral type ranges set in mkLRange.C for JobNum: 22  <1-6|1-6>
 MakeJK  time:  CPU       0.12 s  wall       0.12 s
Fock build time:  0.12 s (CPU) 0.12 s (wall)
DIIS Errors:  Max 8.48E-07 RMS 2.07E-07

Current DIIS subspace size = 12
REM_GRID_RESTART_DIIS = 0

   12    -152.5405933961      2.07E-07  00000
Finding J and K together
 Job number = 22, Threshold = 1.00E-11
Integral type ranges set in mkLRange.C for JobNum: 22  <1-6|1-6>
 MakeJK  time:  CPU       0.14 s  wall       0.14 s
Fock build time:  0.14 s (CPU) 0.14 s (wall)
DIIS Errors:  Max 1.86E-07 RMS 3.45E-08

Current DIIS subspace size = 13
REM_GRID_RESTART_DIIS = 0

   13    -152.5405933961      3.45E-08  00000
Finding J and K together
 Job number = 22, Threshold = 1.00E-11
Integral type ranges set in mkLRange.C for JobNum: 22  <1-6|1-6>
 MakeJK  time:  CPU       0.11 s  wall       0.11 s
Fock build time:  0.11 s (CPU) 0.11 s (wall)
DIIS Errors:  Max 4.77E-08 RMS 8.68E-09

Current DIIS subspace size = 14
REM_GRID_RESTART_DIIS = 0

   14    -152.5405933961      8.68E-09  00000 Convergence criterion met
 ---------------------------------------
 SCF time:  CPU 2.07 s  wall 2.11 s
 SCF   energy in the final basis set = -152.54059340
 Total energy in the final basis set = -152.54059340
drvman_main.C: 73: calling DrvMan  Calculating analytic gradient of the SCF energy
drvman.C : 218: Calculating analytic gradient of the SCF energy
drvman.C: 244: calling SCF_Grad for normal SCF gradient
 Job number = 111, Threshold = 1.00E-11
Integral type ranges set in mkLRange.C for JobNum: 11  <1-6|7-7>
Finding J and K together
 ML is being used
 Job number = 122, Threshold = 1.00E-11
Integral type ranges set in mkLRange.C for JobNum: 22  <1-6|1-6>
 MakeJK  time:  CPU       0.46 s  wall       0.48 s
 Gradient of SCF Energy
            1           2           3           4           5           6
    1  -0.1153123  -0.0848261  -0.0149991  -0.0183371   0.2112699   0.0818655
    2   0.1495005  -0.2830711  -0.0180537   0.0383345   0.0706142   0.0652961
    3  -0.0586402  -0.0110118   0.0663107  -0.0257519   0.1474199   0.1114475
            7           8           9          10
    1  -0.1328369   0.0129994   0.0278496   0.0323272
    2   0.0022053  -0.0621996   0.0257437   0.0116302
    3  -0.0861546  -0.0520882  -0.1123160   0.0207846
 Max gradient component =       2.831E-01
 RMS gradient           =       9.595E-02
drvman.C: 248: out of SCF_Grad for normal SCF gradient
 Gradient time:  CPU 0.47 s  wall 0.50 s
 ------------------------------------------------------------------------------
                     drvman        : Timing summary (seconds)
 ------------------------------------------------------------------------------
     job step          cpu (% of tot)      sys (% of tot)     wall (% of tot)
 ------------------------------------------------------------------------------
 ------------------------------------------------------------------------------
   Grand Totals     0.4720E+00          0.1000E-05          0.4967E+00
 ------------------------------------------------------------------------------
drvman_main.C: 77: out of DrvMan  Time for this dynamics step: 2.6 s (CPU) 2.6 s (wall)

TIME STEP #5 (t = 80.000 a.u. = 1.93511 fs)
--------------------------------------
 Instantaneous Temperature = 3123.8 K
 ----------------------------------------------------------------
             Standard Nuclear Orientation (Angstroms)
    I     Atom           X                Y                Z
 ----------------------------------------------------------------
    1      C       5.4551625300    -0.8626349210    -0.5464550925
    2      C       4.3242534164    -0.3272919844    -0.6033602040
    3      H       6.0886824579    -0.6609944703     0.3348452767
    4      H       5.5203369515    -1.8518414041    -1.0624375318
    5      C       3.1487376300    -0.3141741506    -1.1951182964
    6      C       2.0744807094     0.4630185248    -1.1888765299
    7      H       0.6493491176     0.3855738659    -2.1848566574
    8      H       1.9350926864     1.2093324715    -0.5174059013
    9      H       4.7223526517     0.7750884517    -1.1946498947
   10      H       3.1901536160    -1.0985629664    -1.9397608332
 ----------------------------------------------------------------
 Nuclear Repulsion Energy =   104.8794873484 hartrees
 There are       15 alpha and       15 beta electrons

                       Distance Matrix (Angstroms)
             C (  1)   C (  2)   H (  3)   H (  4)   C (  5)   C (  6)
   C (  2)  1.252512
   H (  3)  1.103946  2.026030
   H (  4)  1.117593  1.991386  1.921856
   C (  5)  2.457879  1.316126  3.332319  2.829577
   C (  6)  3.687692  2.455381  4.438350  4.153130  1.325932
   H (  7)  5.228597  4.063770  6.085273  5.476529  2.777800  1.740395
   H (  8)  4.084701  2.841952  4.634303  4.745716  2.062353  1.013551
   H (  9)  1.907696  1.312764  2.503707  2.748640  1.913833  2.666205
   H ( 10)  2.669687  1.914943  3.710360  2.601323  1.082346  2.060847
             H (  7)   H (  8)   H (  9)
   H (  8)  2.260997
   H (  9)  4.209702  2.901042
   H ( 10)  2.952697  2.987416  2.532468

 Applying Cartesian multipole field
    Component          Value
    ---------          -----
     (2,0,0)        1.00000E-12
     (0,2,0)        2.00000E-11
     (0,0,2)       -3.00000E-11
 Nucleus-field energy     =    -0.0000000007 hartrees
 ENuRep (before)= 104.8794873484
 ENucField = -0.0000000007
 ENuRep (after) = 104.8794873477
 Job number = 2, Threshold = 1.00E-11
Integral type ranges set in mkLRange.C for JobNum: 2  <1-6|1-6>
Symmetry turned off temporarily
Symmetry turned back on
 Job number = 11, Threshold = 1.00E-11
Integral type ranges set in mkLRange.C for JobNum: 11  <1-6|7-7>
 Smallest overlap matrix eigenvalue = 1.53E-01
 Multipole matrices computed through 2nd order
 Guess from superposition of atomic densities
 Warning:  Energy on first SCF cycle will be non-variational
 SAD guess density has 30.000000 electrons
 SCF convergence criterion is 10**(-8)
 A restricted Hartree-Fock SCF calculation will be
 performed using Pulay DIIS extrapolation
 SCF converges when DIIS error is below 1.0E-08
Finding J and K together
 Job number = 22, Threshold = 1.00E-11
Integral type ranges set in mkLRange.C for JobNum: 22  <1-6|1-6>
 MakeJK  time:  CPU       0.14 s  wall       0.14 s
Fock build time:  0.14 s (CPU) 0.14 s (wall)
DIIS Errors:  Max 1.29E+00 RMS 2.33E-01

Current DIIS subspace size = 1
REM_GRID_RESTART_DIIS = 0

 ---------------------------------------
  Cycle       Energy         DIIS Error
 ---------------------------------------
    1    -152.7129169921      2.33E-01  00000
Finding J and K together
 Job number = 22, Threshold = 1.00E-11
Integral type ranges set in mkLRange.C for JobNum: 22  <1-6|1-6>
 MakeJK  time:  CPU       0.15 s  wall       0.15 s
Fock build time:  0.15 s (CPU) 0.15 s (wall)
DIIS Errors:  Max 6.36E-02 RMS 1.41E-02

Current DIIS subspace size = 2
REM_GRID_RESTART_DIIS = 0

    2    -152.5675149555      1.41E-02  00000
Finding J and K together
 Job number = 22, Threshold = 1.00E-11
Integral type ranges set in mkLRange.C for JobNum: 22  <1-6|1-6>
 MakeJK  time:  CPU       0.14 s  wall       0.14 s
Fock build time:  0.14 s (CPU) 0.14 s (wall)
DIIS Errors:  Max 2.57E-02 RMS 4.32E-03

Current DIIS subspace size = 3
REM_GRID_RESTART_DIIS = 0

    3    -152.5994225959      4.32E-03  00000
Finding J and K together
 Job number = 22, Threshold = 1.00E-11
Integral type ranges set in mkLRange.C for JobNum: 22  <1-6|1-6>
 MakeJK  time:  CPU       0.12 s  wall       0.12 s
Fock build time:  0.12 s (CPU) 0.13 s (wall)
DIIS Errors:  Max 1.04E-02 RMS 1.78E-03

Current DIIS subspace size = 4
REM_GRID_RESTART_DIIS = 0

    4    -152.6021511019      1.78E-03  00000
Finding J and K together
 Job number = 22, Threshold = 1.00E-11
Integral type ranges set in mkLRange.C for JobNum: 22  <1-6|1-6>
 MakeJK  time:  CPU       0.15 s  wall       0.15 s
Fock build time:  0.15 s (CPU) 0.15 s (wall)
DIIS Errors:  Max 1.27E-03 RMS 3.06E-04

Current DIIS subspace size = 5
REM_GRID_RESTART_DIIS = 0

    5    -152.6026009494      3.06E-04  00000
Finding J and K together
 Job number = 22, Threshold = 1.00E-11
Integral type ranges set in mkLRange.C for JobNum: 22  <1-6|1-6>
 MakeJK  time:  CPU       0.19 s  wall       0.19 s
Fock build time:  0.19 s (CPU) 0.19 s (wall)
DIIS Errors:  Max 3.66E-04 RMS 9.21E-05

Current DIIS subspace size = 6
REM_GRID_RESTART_DIIS = 0

    6    -152.6026167361      9.21E-05  00000
Finding J and K together
 Job number = 22, Threshold = 1.00E-11
Integral type ranges set in mkLRange.C for JobNum: 22  <1-6|1-6>
 MakeJK  time:  CPU       0.20 s  wall       0.19 s
Fock build time:  0.20 s (CPU) 0.20 s (wall)
DIIS Errors:  Max 1.77E-04 RMS 3.47E-05

Current DIIS subspace size = 7
REM_GRID_RESTART_DIIS = 0

    7    -152.6026200985      3.47E-05  00000
Finding J and K together
 Job number = 22, Threshold = 1.00E-11
Integral type ranges set in mkLRange.C for JobNum: 22  <1-6|1-6>
 MakeJK  time:  CPU       0.16 s  wall       0.16 s
Fock build time:  0.16 s (CPU) 0.16 s (wall)
DIIS Errors:  Max 7.34E-05 RMS 1.38E-05

Current DIIS subspace size = 8
REM_GRID_RESTART_DIIS = 0

    8    -152.6026203940      1.38E-05  00000
Finding J and K together
 Job number = 22, Threshold = 1.00E-11
Integral type ranges set in mkLRange.C for JobNum: 22  <1-6|1-6>
 MakeJK  time:  CPU       0.19 s  wall       0.19 s
Fock build time:  0.19 s (CPU) 0.19 s (wall)
DIIS Errors:  Max 1.98E-05 RMS 4.04E-06

Current DIIS subspace size = 9
REM_GRID_RESTART_DIIS = 0

    9    -152.6026204421      4.04E-06  00000
Finding J and K together
 Job number = 22, Threshold = 1.00E-11
Integral type ranges set in mkLRange.C for JobNum: 22  <1-6|1-6>
 MakeJK  time:  CPU       0.18 s  wall       0.19 s
Fock build time:  0.18 s (CPU) 0.19 s (wall)
DIIS Errors:  Max 3.81E-06 RMS 8.10E-07

Current DIIS subspace size = 10
REM_GRID_RESTART_DIIS = 0

   10    -152.6026204473      8.10E-07  00000
Finding J and K together
 Job number = 22, Threshold = 1.00E-11
Integral type ranges set in mkLRange.C for JobNum: 22  <1-6|1-6>
 MakeJK  time:  CPU       0.19 s  wall       0.21 s
Fock build time:  0.19 s (CPU) 0.21 s (wall)
DIIS Errors:  Max 1.33E-06 RMS 2.34E-07

Current DIIS subspace size = 11
REM_GRID_RESTART_DIIS = 0

   11    -152.6026204475      2.34E-07  00000
Finding J and K together
 Job number = 22, Threshold = 1.00E-11
Integral type ranges set in mkLRange.C for JobNum: 22  <1-6|1-6>
 MakeJK  time:  CPU       0.19 s  wall       0.19 s
Fock build time:  0.19 s (CPU) 0.19 s (wall)
DIIS Errors:  Max 5.24E-07 RMS 8.69E-08

Current DIIS subspace size = 12
REM_GRID_RESTART_DIIS = 0

   12    -152.6026204475      8.69E-08  00000
Finding J and K together
 Job number = 22, Threshold = 1.00E-11
Integral type ranges set in mkLRange.C for JobNum: 22  <1-6|1-6>
 MakeJK  time:  CPU       0.19 s  wall       0.19 s
Fock build time:  0.19 s (CPU) 0.19 s (wall)
DIIS Errors:  Max 1.29E-07 RMS 2.23E-08

Current DIIS subspace size = 13
REM_GRID_RESTART_DIIS = 0

   13    -152.6026204475      2.23E-08  00000
Finding J and K together
 Job number = 22, Threshold = 1.00E-11
Integral type ranges set in mkLRange.C for JobNum: 22  <1-6|1-6>
 MakeJK  time:  CPU       0.15 s  wall       0.16 s
Fock build time:  0.16 s (CPU) 0.16 s (wall)
DIIS Errors:  Max 2.05E-08 RMS 4.24E-09

Current DIIS subspace size = 14
REM_GRID_RESTART_DIIS = 0

   14    -152.6026204475      4.24E-09  00000 Convergence criterion met
 ---------------------------------------
 SCF time:  CPU 2.36 s  wall 2.41 s
 SCF   energy in the final basis set = -152.60262045
 Total energy in the final basis set = -152.60262045
drvman_main.C: 73: calling DrvMan  Calculating analytic gradient of the SCF energy
drvman.C : 218: Calculating analytic gradient of the SCF energy
drvman.C: 244: calling SCF_Grad for normal SCF gradient
 Job number = 111, Threshold = 1.00E-11
Integral type ranges set in mkLRange.C for JobNum: 11  <1-6|7-7>
Finding J and K together
 ML is being used
 Job number = 122, Threshold = 1.00E-11
Integral type ranges set in mkLRange.C for JobNum: 22  <1-6|1-6>
 MakeJK  time:  CPU       0.50 s  wall       0.50 s
 Gradient of SCF Energy
            1           2           3           4           5           6
    1  -0.0828223  -0.0822226  -0.0270661  -0.0139918   0.1841820   0.0919539
    2   0.1751010  -0.2686212  -0.0219500   0.0053208   0.0754080   0.0633228
    3  -0.0198898   0.0012529   0.0445933  -0.0415259   0.1363851   0.1136861
            7           8           9          10
    1  -0.1366814   0.0119535   0.0253723   0.0293225
    2   0.0010770  -0.0622679   0.0219919   0.0106176
    3  -0.0880464  -0.0528891  -0.1109390   0.0173728
 Max gradient component =       2.686E-01
 RMS gradient           =       9.193E-02
drvman.C: 248: out of SCF_Grad for normal SCF gradient
 Gradient time:  CPU 0.52 s  wall 0.52 s
 ------------------------------------------------------------------------------
                     drvman        : Timing summary (seconds)
 ------------------------------------------------------------------------------
     job step          cpu (% of tot)      sys (% of tot)     wall (% of tot)
 ------------------------------------------------------------------------------
 ------------------------------------------------------------------------------
   Grand Totals     0.5200E+00          0.1000E-05          0.5210E+00
 ------------------------------------------------------------------------------
drvman_main.C: 77: out of DrvMan  Time for this dynamics step: 2.9 s (CPU) 3.0 s (wall)

TIME STEP #6 (t = 100.000 a.u. = 2.41888 fs)
--------------------------------------
 Instantaneous Temperature = 4426.6 K
 ----------------------------------------------------------------
             Standard Nuclear Orientation (Angstroms)
    I     Atom           X                Y                Z
 ----------------------------------------------------------------
    1      C       5.4663414886    -0.8678514545    -0.5377209720
    2      C       4.3294079011    -0.3168195809    -0.6014032545
    3      H       6.1109481879    -0.6528557545     0.2844278448
    4      H       5.5296421705    -1.8958758122    -1.0631419682
    5      C       3.1350740078    -0.3148249155    -1.2014542619
    6      C       2.0680694719     0.4634426173    -1.1975462541
    7      H       0.7298667198     0.3733214704    -2.1350006548
    8      H       1.9176968864     1.2138481885    -0.5183155168
    9      H       4.6924622169     0.7536312471    -1.1251783228
   10      H       3.1698994845    -1.0933548906    -1.9556837374
 ----------------------------------------------------------------
 Nuclear Repulsion Energy =   104.6597616195 hartrees
 There are       15 alpha and       15 beta electrons

                       Distance Matrix (Angstroms)
             C (  1)   C (  2)   H (  3)   H (  4)   C (  5)   C (  6)
   C (  2)  1.265033
   H (  3)  1.066616  2.017797
   H (  4)  1.156247  2.036463  1.923268
   C (  5)  2.486200  1.336600  3.343342  2.872770
   C (  6)  3.708904  2.465329  4.448285  4.191293  1.320687
   H (  7)  5.150340  3.973023  5.988548  5.416270  2.670220  1.636377
   H (  8)  4.114211  2.857656  4.659650  4.797225  2.070151  1.023267
   H (  9)  1.890291  1.245798  2.444851  2.779318  1.890205  2.641379
   H ( 10)  2.708342  1.944619  3.723158  2.647462  1.084520  2.052418
             H (  7)   H (  8)   H (  9)
   H (  8)  2.175108
   H (  9)  4.106889  2.877395
   H ( 10)  2.852552  2.992862  2.533633

 Applying Cartesian multipole field
    Component          Value
    ---------          -----
     (2,0,0)        1.00000E-12
     (0,2,0)        2.00000E-11
     (0,0,2)       -3.00000E-11
 Nucleus-field energy     =    -0.0000000007 hartrees
 ENuRep (before)= 104.6597616195
 ENucField = -0.0000000007
 ENuRep (after) = 104.6597616188
 Job number = 2, Threshold = 1.00E-11
Integral type ranges set in mkLRange.C for JobNum: 2  <1-6|1-6>
Symmetry turned off temporarily
Symmetry turned back on
 Job number = 11, Threshold = 1.00E-11
Integral type ranges set in mkLRange.C for JobNum: 11  <1-6|7-7>
 Smallest overlap matrix eigenvalue = 1.58E-01
 Multipole matrices computed through 2nd order
 Guess from superposition of atomic densities
 Warning:  Energy on first SCF cycle will be non-variational
 SAD guess density has 30.000000 electrons
 SCF convergence criterion is 10**(-8)
 A restricted Hartree-Fock SCF calculation will be
 performed using Pulay DIIS extrapolation
 SCF converges when DIIS error is below 1.0E-08
Finding J and K together
 Job number = 22, Threshold = 1.00E-11
Integral type ranges set in mkLRange.C for JobNum: 22  <1-6|1-6>
 MakeJK  time:  CPU       0.14 s  wall       0.15 s
Fock build time:  0.14 s (CPU) 0.15 s (wall)
DIIS Errors:  Max 1.26E+00 RMS 2.30E-01

Current DIIS subspace size = 1
REM_GRID_RESTART_DIIS = 0

 ---------------------------------------
  Cycle       Energy         DIIS Error
 ---------------------------------------
    1    -152.6998508700      2.30E-01  00000
Finding J and K together
 Job number = 22, Threshold = 1.00E-11
Integral type ranges set in mkLRange.C for JobNum: 22  <1-6|1-6>
 MakeJK  time:  CPU       0.19 s  wall       0.19 s
Fock build time:  0.19 s (CPU) 0.19 s (wall)
DIIS Errors:  Max 6.59E-02 RMS 1.38E-02

Current DIIS subspace size = 2
REM_GRID_RESTART_DIIS = 0

    2    -152.6395886804      1.38E-02  00000
Finding J and K together
 Job number = 22, Threshold = 1.00E-11
Integral type ranges set in mkLRange.C for JobNum: 22  <1-6|1-6>
 MakeJK  time:  CPU       0.20 s  wall       0.20 s
Fock build time:  0.20 s (CPU) 0.20 s (wall)
DIIS Errors:  Max 2.21E-02 RMS 3.88E-03

Current DIIS subspace size = 3
REM_GRID_RESTART_DIIS = 0

    3    -152.6700413333      3.88E-03  00000
Finding J and K together
 Job number = 22, Threshold = 1.00E-11
Integral type ranges set in mkLRange.C for JobNum: 22  <1-6|1-6>
 MakeJK  time:  CPU       0.18 s  wall       0.18 s
Fock build time:  0.18 s (CPU) 0.18 s (wall)
DIIS Errors:  Max 6.83E-03 RMS 1.20E-03

Current DIIS subspace size = 4
REM_GRID_RESTART_DIIS = 0

    4    -152.6725018561      1.20E-03  00000
Finding J and K together
 Job number = 22, Threshold = 1.00E-11
Integral type ranges set in mkLRange.C for JobNum: 22  <1-6|1-6>
 MakeJK  time:  CPU       0.18 s  wall       0.22 s
Fock build time:  0.18 s (CPU) 0.22 s (wall)
DIIS Errors:  Max 1.14E-03 RMS 2.60E-04

Current DIIS subspace size = 5
REM_GRID_RESTART_DIIS = 0

    5    -152.6727073286      2.60E-04  00000
Finding J and K together
 Job number = 22, Threshold = 1.00E-11
Integral type ranges set in mkLRange.C for JobNum: 22  <1-6|1-6>
 MakeJK  time:  CPU       0.18 s  wall       0.19 s
[...]
   H (  4)  1.223800  1.855608  1.963728
   C (  5)  2.636489  1.790371  3.579142  2.440310
   C (  6)  3.421807  2.542886  4.181068  3.029784  1.273367
   H (  7)  4.482824  3.612036  5.246322  3.988456  2.158705  1.078118
   H (  8)  3.791441  2.699783  4.402749  3.697524  1.875129  1.081080
   H (  9)  1.872263  0.951103  2.251932  2.757225  2.395226  3.077198
   H ( 10)  2.890522  2.634787  3.909539  2.176672  1.440093  2.095531
             H (  7)   H (  8)   H (  9)
   H (  8)  1.526862
   H (  9)  4.092573  2.907347
   H ( 10)  2.689031  3.064363  3.465585

 Applying Cartesian multipole field
    Component          Value
    ---------          -----
     (2,0,0)        1.00000E-12
     (0,2,0)        2.00000E-11
     (0,0,2)       -3.00000E-11
 Nucleus-field energy     =    -0.0000000035 hartrees
 ENuRep (before)= 102.9792629148
 ENucField = -0.0000000035
 ENuRep (after) = 102.9792629113
 Job number = 2, Threshold = 1.00E-11
Integral type ranges set in mkLRange.C for JobNum: 2  <1-6|1-6>
Symmetry turned off temporarily
Symmetry turned back on
 Job number = 11, Threshold = 1.00E-11
Integral type ranges set in mkLRange.C for JobNum: 11  <1-6|7-7>
 Smallest overlap matrix eigenvalue = 1.40E-01
 Multipole matrices computed through 2nd order
 Extrapolating the Fock matrix using 12 points and a 6th-order polynomial
 Alpha Fock matrix extrapolation
 Skip SCF guess (diagonalize extrapolated Fock matrix instead)
 SCF convergence criterion is 10**(-8)
 A restricted Hartree-Fock SCF calculation will be
 performed using Pulay DIIS extrapolation
 SCF converges when DIIS error is below 1.0E-08
Extrapolated Fock matrix used in lieu of Fock build
Fock build time:  0.00 s (CPU) 0.00 s (wall)
DIIS Errors:  Max 3.68E-01 RMS 3.26E-02

Current DIIS subspace size = 1
REM_GRID_RESTART_DIIS = 0

 ---------------------------------------
  Cycle       Energy         DIIS Error
 ---------------------------------------
    1    -306.7705977745      3.26E-02  00000
Finding J and K together
 Job number = 22, Threshold = 1.00E-11
Integral type ranges set in mkLRange.C for JobNum: 22  <1-6|1-6>
 MakeJK  time:  CPU       0.19 s  wall       0.19 s
Fock build time:  0.19 s (CPU) 0.19 s (wall)
DIIS Errors:  Max 2.56E-01 RMS 2.60E-02

Current DIIS subspace size = 2
REM_GRID_RESTART_DIIS = 0

    2    -152.6765896544      2.60E-02  00000
Finding J and K together
 Job number = 22, Threshold = 1.00E-11
Integral type ranges set in mkLRange.C for JobNum: 22  <1-6|1-6>
 MakeJK  time:  CPU       0.16 s  wall       0.16 s
Fock build time:  0.16 s (CPU) 0.16 s (wall)
DIIS Errors:  Max 1.19E-01 RMS 1.22E-02

Current DIIS subspace size = 3
REM_GRID_RESTART_DIIS = 0

    3    -152.6855185702      1.22E-02  00000
Finding J and K together
 Job number = 22, Threshold = 1.00E-11
Integral type ranges set in mkLRange.C for JobNum: 22  <1-6|1-6>
 MakeJK  time:  CPU       0.15 s  wall       0.15 s
Fock build time:  0.15 s (CPU) 0.15 s (wall)
DIIS Errors:  Max 2.21E-03 RMS 3.62E-04

Current DIIS subspace size = 4
REM_GRID_RESTART_DIIS = 0

    4    -152.6882639318      3.62E-04  00000
Finding J and K together
 Job number = 22, Threshold = 1.00E-11
Integral type ranges set in mkLRange.C for JobNum: 22  <1-6|1-6>
 MakeJK  time:  CPU       0.19 s  wall       0.20 s
Fock build time:  0.19 s (CPU) 0.20 s (wall)
DIIS Errors:  Max 1.30E-03 RMS 1.29E-04

Current DIIS subspace size = 5
REM_GRID_RESTART_DIIS = 0

    5    -152.6882776261      1.29E-04  00000
Finding J and K together
 Job number = 22, Threshold = 1.00E-11
Integral type ranges set in mkLRange.C for JobNum: 22  <1-6|1-6>
 MakeJK  time:  CPU       0.20 s  wall       0.20 s
Fock build time:  0.20 s (CPU) 0.20 s (wall)
DIIS Errors:  Max 2.99E-04 RMS 4.44E-05

Current DIIS subspace size = 6
REM_GRID_RESTART_DIIS = 0

    6    -152.6882810029      4.44E-05  00000
Finding J and K together
 Job number = 22, Threshold = 1.00E-11
Integral type ranges set in mkLRange.C for JobNum: 22  <1-6|1-6>
 MakeJK  time:  CPU       0.20 s  wall       0.20 s
Fock build time:  0.20 s (CPU) 0.20 s (wall)
DIIS Errors:  Max 6.95E-05 RMS 1.07E-05

Current DIIS subspace size = 7
REM_GRID_RESTART_DIIS = 0

    7    -152.6882814551      1.07E-05  00000
Finding J and K together
 Job number = 22, Threshold = 1.00E-11
Integral type ranges set in mkLRange.C for JobNum: 22  <1-6|1-6>
 MakeJK  time:  CPU       0.20 s  wall       0.20 s
Fock build time:  0.20 s (CPU) 0.20 s (wall)
DIIS Errors:  Max 2.14E-05 RMS 4.14E-06

Current DIIS subspace size = 8
REM_GRID_RESTART_DIIS = 0

    8    -152.6882814736      4.14E-06  00000
Finding J and K together
 Job number = 22, Threshold = 1.00E-11
Integral type ranges set in mkLRange.C for JobNum: 22  <1-6|1-6>
 MakeJK  time:  CPU       0.20 s  wall       0.20 s
Fock build time:  0.20 s (CPU) 0.20 s (wall)
DIIS Errors:  Max 6.23E-06 RMS 1.10E-06

Current DIIS subspace size = 9
REM_GRID_RESTART_DIIS = 0

    9    -152.6882814767      1.10E-06  00000
Finding J and K together
 Job number = 22, Threshold = 1.00E-11
Integral type ranges set in mkLRange.C for JobNum: 22  <1-6|1-6>
 MakeJK  time:  CPU       0.20 s  wall       0.20 s
Fock build time:  0.20 s (CPU) 0.20 s (wall)
DIIS Errors:  Max 2.39E-06 RMS 3.86E-07

Current DIIS subspace size = 10
REM_GRID_RESTART_DIIS = 0

   10    -152.6882814771      3.86E-07  00000
Finding J and K together
 Job number = 22, Threshold = 1.00E-11
Integral type ranges set in mkLRange.C for JobNum: 22  <1-6|1-6>
 MakeJK  time:  CPU       0.20 s  wall       0.20 s
Fock build time:  0.20 s (CPU) 0.20 s (wall)
DIIS Errors:  Max 8.26E-07 RMS 1.14E-07

Current DIIS subspace size = 11
REM_GRID_RESTART_DIIS = 0

   11    -152.6882814772      1.14E-07  00000
Finding J and K together
 Job number = 22, Threshold = 1.00E-11
Integral type ranges set in mkLRange.C for JobNum: 22  <1-6|1-6>
 MakeJK  time:  CPU       0.14 s  wall       0.14 s
Fock build time:  0.14 s (CPU) 0.14 s (wall)
DIIS Errors:  Max 1.51E-07 RMS 2.30E-08

Current DIIS subspace size = 12
REM_GRID_RESTART_DIIS = 0

   12    -152.6882814772      2.30E-08  00000
Finding J and K together
 Job number = 22, Threshold = 1.00E-11
Integral type ranges set in mkLRange.C for JobNum: 22  <1-6|1-6>
 MakeJK  time:  CPU       0.11 s  wall       0.11 s
Fock build time:  0.11 s (CPU) 0.11 s (wall)
DIIS Errors:  Max 3.25E-08 RMS 4.92E-09

Current DIIS subspace size = 13
REM_GRID_RESTART_DIIS = 0

   13    -152.6882814772      4.92E-09  00000 Convergence criterion met
 ---------------------------------------
 SCF time:  CPU 2.15 s  wall 2.19 s
 SCF   energy in the final basis set = -152.68828148
 Total energy in the final basis set = -152.68828148
drvman_main.C: 73: calling DrvMan  Calculating analytic gradient of the SCF energy
drvman.C : 218: Calculating analytic gradient of the SCF energy
drvman.C: 244: calling SCF_Grad for normal SCF gradient
 Job number = 111, Threshold = 1.00E-11
Integral type ranges set in mkLRange.C for JobNum: 11  <1-6|7-7>
Finding J and K together
 ML is being used
 Job number = 122, Threshold = 1.00E-11
Integral type ranges set in mkLRange.C for JobNum: 22  <1-6|1-6>
 MakeJK  time:  CPU       0.40 s  wall       0.41 s
 Gradient of SCF Energy
            1           2           3           4           5           6
    1   0.0716398   0.0866426  -0.0367479  -0.0851087  -0.1625891   0.1324980
    2   0.2063256   0.0184959   0.0088170  -0.0331824   0.2066476  -0.1478191
    3  -0.0722518   0.2381158   0.0025291  -0.0364131  -0.1013760   0.0508007
            7           8           9          10
    1  -0.0027873   0.0114111  -0.0055489  -0.0094095
    2   0.0676322  -0.0113286  -0.1813924  -0.1341959
    3   0.0136606  -0.0595477  -0.0235794  -0.0119382
 Max gradient component =       2.381E-01
 RMS gradient           =       1.017E-01
drvman.C: 248: out of SCF_Grad for normal SCF gradient
 Gradient time:  CPU 0.41 s  wall 0.42 s
 ------------------------------------------------------------------------------
                     drvman        : Timing summary (seconds)
 ------------------------------------------------------------------------------
     job step          cpu (% of tot)      sys (% of tot)     wall (% of tot)
 ------------------------------------------------------------------------------
 ------------------------------------------------------------------------------
   Grand Totals     0.4120E+00          0.1000E-05          0.4198E+00
 ------------------------------------------------------------------------------
drvman_main.C: 77: out of DrvMan  Time for this dynamics step: 2.6 s (CPU) 2.6 s (wall)

TIME STEP #400 (t = 7980.000 a.u. = 193.02697 fs)
--------------------------------------
 Instantaneous Temperature = 6166.0 K
 ----------------------------------------------------------------
             Standard Nuclear Orientation (Angstroms)
    I     Atom           X                Y                Z
 ----------------------------------------------------------------
    1      C       5.0049878645    -0.6719730534     0.2783779171
    2      C       4.3277494586     0.1897946790    -0.3391736428
    3      H       5.0595253531    -0.4307777842     1.3101793616
    4      H       4.3475988397    -1.6087456946    -0.0848375745
    5      C       3.4985576397    -0.2424883886    -1.8623431299
    6      C       2.2577958671    -0.2502157562    -1.7417389743
    7      H       1.3444322726    -0.3345427219    -2.4617047355
    8      H       1.9992029005     0.7532112054    -1.4919494703
    9      H       4.5633333005     1.1833597351    -0.1322127807
   10      H       3.7624566269    -1.5921370821    -2.1431472833
 ----------------------------------------------------------------
 Nuclear Repulsion Energy =   102.6759874810 hartrees
 There are       15 alpha and       15 beta electrons

                       Distance Matrix (Angstroms)
             C (  1)   C (  2)   H (  3)   H (  4)   C (  5)   C (  6)
   C (  2)  1.258040
   H (  3)  1.061020  1.908133
   H (  4)  1.200678  1.816543  1.959724
   C (  5)  2.652636  1.787309  3.540759  2.397302
   C (  6)  3.435959  2.538800  4.146866  2.993026  1.246633
   H (  7)  4.584930  3.698682  5.295119  4.036347  2.237848  1.166060
   H (  8)  3.768282  2.658657  4.315012  3.615767  1.837573  1.065894
   H (  9)  1.950872  1.041875  2.220843  2.800828  2.481963  3.156139
   H ( 10)  2.873042  2.597914  3.867377  2.139931  1.403583  2.055696
             H (  7)   H (  8)   H (  9)
   H (  8)  1.597610
   H (  9)  4.253456  2.934055
   H ( 10)  2.744060  3.005625  3.519751

 Applying Cartesian multipole field
    Component          Value
    ---------          -----
     (2,0,0)        1.00000E-12
     (0,2,0)        2.00000E-11
     (0,0,2)       -3.00000E-11
 Nucleus-field energy     =    -0.0000000035 hartrees
 ENuRep (before)= 102.6759874810
 ENucField = -0.0000000035
 ENuRep (after) = 102.6759874776
 Job number = 2, Threshold = 1.00E-11
Integral type ranges set in mkLRange.C for JobNum: 2  <1-6|1-6>
Symmetry turned off temporarily
Symmetry turned back on
 Job number = 11, Threshold = 1.00E-11
Integral type ranges set in mkLRange.C for JobNum: 11  <1-6|7-7>
 Smallest overlap matrix eigenvalue = 1.50E-01
 Multipole matrices computed through 2nd order
 Extrapolating the Fock matrix using 12 points and a 6th-order polynomial
 Alpha Fock matrix extrapolation
 Skip SCF guess (diagonalize extrapolated Fock matrix instead)
 SCF convergence criterion is 10**(-8)
 A restricted Hartree-Fock SCF calculation will be
 performed using Pulay DIIS extrapolation
 SCF converges when DIIS error is below 1.0E-08
Extrapolated Fock matrix used in lieu of Fock build
Fock build time:  0.00 s (CPU) 0.00 s (wall)
DIIS Errors:  Max 5.04E-01 RMS 3.66E-02

Current DIIS subspace size = 1
REM_GRID_RESTART_DIIS = 0

 ---------------------------------------
  Cycle       Energy         DIIS Error
 ---------------------------------------
    1    -306.4809471936      3.66E-02  00000
Finding J and K together
 Job number = 22, Threshold = 1.00E-11
Integral type ranges set in mkLRange.C for JobNum: 22  <1-6|1-6>
 MakeJK  time:  CPU       0.20 s  wall       0.20 s
Fock build time:  0.20 s (CPU) 0.20 s (wall)
DIIS Errors:  Max 3.48E-01 RMS 2.92E-02

Current DIIS subspace size = 2
REM_GRID_RESTART_DIIS = 0

    2    -152.6936565172      2.92E-02  00000
Finding J and K together
 Job number = 22, Threshold = 1.00E-11
Integral type ranges set in mkLRange.C for JobNum: 22  <1-6|1-6>
 MakeJK  time:  CPU       0.19 s  wall       0.20 s
Fock build time:  0.19 s (CPU) 0.20 s (wall)
DIIS Errors:  Max 1.65E-01 RMS 1.38E-02

Current DIIS subspace size = 3
REM_GRID_RESTART_DIIS = 0

    3    -152.7056511494      1.38E-02  00000
Finding J and K together
 Job number = 22, Threshold = 1.00E-11
Integral type ranges set in mkLRange.C for JobNum: 22  <1-6|1-6>
 MakeJK  time:  CPU       0.18 s  wall       0.18 s
Fock build time:  0.18 s (CPU) 0.18 s (wall)
DIIS Errors:  Max 5.18E-03 RMS 5.88E-04

Current DIIS subspace size = 4
REM_GRID_RESTART_DIIS = 0

    4    -152.7093732286      5.88E-04  00000
Finding J and K together
 Job number = 22, Threshold = 1.00E-11
Integral type ranges set in mkLRange.C for JobNum: 22  <1-6|1-6>
 MakeJK  time:  CPU       0.14 s  wall       0.14 s
Fock build time:  0.14 s (CPU) 0.14 s (wall)
DIIS Errors:  Max 1.11E-03 RMS 1.55E-04

Current DIIS subspace size = 5
REM_GRID_RESTART_DIIS = 0

    5    -152.7093980617      1.55E-04  00000
Finding J and K together
 Job number = 22, Threshold = 1.00E-11
Integral type ranges set in mkLRange.C for JobNum: 22  <1-6|1-6>
 MakeJK  time:  CPU       0.19 s  wall       0.19 s
Fock build time:  0.19 s (CPU) 0.19 s (wall)
DIIS Errors:  Max 3.81E-04 RMS 5.29E-05

Current DIIS subspace size = 6
REM_GRID_RESTART_DIIS = 0

    6    -152.7094026533      5.29E-05  00000
Finding J and K together
 Job number = 22, Threshold = 1.00E-11
Integral type ranges set in mkLRange.C for JobNum: 22  <1-6|1-6>
 MakeJK  time:  CPU       0.18 s  wall       0.18 s
Fock build time:  0.18 s (CPU) 0.18 s (wall)
DIIS Errors:  Max 7.08E-05 RMS 1.26E-05

Current DIIS subspace size = 7
REM_GRID_RESTART_DIIS = 0

    7    -152.7094031019      1.26E-05  00000
Finding J and K together
 Job number = 22, Threshold = 1.00E-11
Integral type ranges set in mkLRange.C for JobNum: 22  <1-6|1-6>
 MakeJK  time:  CPU       0.20 s  wall       0.21 s
Fock build time:  0.20 s (CPU) 0.21 s (wall)
DIIS Errors:  Max 3.86E-05 RMS 4.91E-06

Current DIIS subspace size = 8
REM_GRID_RESTART_DIIS = 0

    8    -152.7094031425      4.91E-06  00000
Finding J and K together
 Job number = 22, Threshold = 1.00E-11
Integral type ranges set in mkLRange.C for JobNum: 22  <1-6|1-6>
 MakeJK  time:  CPU       0.18 s  wall       0.20 s
Fock build time:  0.18 s (CPU) 0.20 s (wall)
DIIS Errors:  Max 6.24E-06 RMS 1.03E-06

Current DIIS subspace size = 9
REM_GRID_RESTART_DIIS = 0

    9    -152.7094031448      1.03E-06  00000
Finding J and K together
 Job number = 22, Threshold = 1.00E-11
Integral type ranges set in mkLRange.C for JobNum: 22  <1-6|1-6>
 MakeJK  time:  CPU       0.20 s  wall       0.20 s
Fock build time:  0.20 s (CPU) 0.20 s (wall)
DIIS Errors:  Max 3.14E-06 RMS 3.91E-07

Current DIIS subspace size = 10
REM_GRID_RESTART_DIIS = 0

   10    -152.7094031449      3.91E-07  00000
Finding J and K together
 Job number = 22, Threshold = 1.00E-11
Integral type ranges set in mkLRange.C for JobNum: 22  <1-6|1-6>
 MakeJK  time:  CPU       0.16 s  wall       0.16 s
Fock build time:  0.16 s (CPU) 0.16 s (wall)
DIIS Errors:  Max 5.07E-07 RMS 8.28E-08

Current DIIS subspace size = 11
REM_GRID_RESTART_DIIS = 0

   11    -152.7094031450      8.28E-08  00000
Finding J and K together
 Job number = 22, Threshold = 1.00E-11
Integral type ranges set in mkLRange.C for JobNum: 22  <1-6|1-6>
 MakeJK  time:  CPU       0.19 s  wall       0.19 s
Fock build time:  0.20 s (CPU) 0.19 s (wall)
DIIS Errors:  Max 9.94E-08 RMS 1.69E-08

Current DIIS subspace size = 12
REM_GRID_RESTART_DIIS = 0

   12    -152.7094031450      1.69E-08  00000
Finding J and K together
 Job number = 22, Threshold = 1.00E-11
Integral type ranges set in mkLRange.C for JobNum: 22  <1-6|1-6>
 MakeJK  time:  CPU       0.20 s  wall       0.20 s
Fock build time:  0.20 s (CPU) 0.20 s (wall)
DIIS Errors:  Max 2.17E-08 RMS 4.92E-09

Current DIIS subspace size = 13
REM_GRID_RESTART_DIIS = 0

   13    -152.7094031450      4.92E-09  00000 Convergence criterion met
 ---------------------------------------
 SCF time:  CPU 2.22 s  wall 2.28 s
 SCF   energy in the final basis set = -152.70940314
 Total energy in the final basis set = -152.70940314
drvman_main.C: 73: calling DrvMan  Calculating analytic gradient of the SCF energy
drvman.C : 218: Calculating analytic gradient of the SCF energy
drvman.C: 244: calling SCF_Grad for normal SCF gradient
 Job number = 111, Threshold = 1.00E-11
Integral type ranges set in mkLRange.C for JobNum: 11  <1-6|7-7>
Finding J and K together
 ML is being used
 Job number = 122, Threshold = 1.00E-11
Integral type ranges set in mkLRange.C for JobNum: 22  <1-6|1-6>
 MakeJK  time:  CPU       0.49 s  wall       0.52 s
 Gradient of SCF Energy
            1           2           3           4           5           6
    1   0.0955692   0.0411066  -0.0389871  -0.0827509  -0.2161506   0.2294858
    2   0.1548224  -0.0721673   0.0121494  -0.0156580   0.2086390  -0.1330666
    3  -0.0164944   0.1927327  -0.0255262  -0.0430569  -0.0951305   0.0807925
            7           8           9          10
    1  -0.0557459   0.0200122   0.0185219  -0.0110611
    2   0.0547481  -0.0213226  -0.0584379  -0.1297064
    3  -0.0270551  -0.0572899  -0.0000672  -0.0089049
 Max gradient component =       2.295E-01
 RMS gradient           =       9.944E-02
drvman.C: 248: out of SCF_Grad for normal SCF gradient
 Gradient time:  CPU 0.51 s  wall 0.54 s
 ------------------------------------------------------------------------------
                     drvman        : Timing summary (seconds)
 ------------------------------------------------------------------------------
     job step          cpu (% of tot)      sys (% of tot)     wall (% of tot)
 ------------------------------------------------------------------------------
 ------------------------------------------------------------------------------
   Grand Totals     0.5120E+00          0.1000E-05          0.5434E+00
 ------------------------------------------------------------------------------
drvman_main.C: 77: out of DrvMan  Time for this dynamics step: 2.8 s (CPU) 2.9 s (wall)

=============== TIME STEPS COMPLETED ==================

Step-to-Step energy fluctuations, |E(n) - E(n-1)|
Mean: -9.209e-06   Max: 1.365e-02   RMS: 1.760e-03
Overall energy fluctuations, |E(n) - E(0)|
Mean: -1.810e-03   Max: 8.875e-03   RMS: 1.698e-03   RMS(dE)/RMS(dV): 2.290e-02
Kinetic energy fluctuations, |T(n) - V(0)|
Mean: 2.656e-01   Max: 5.159e-01   RMS: 7.311e-02
Potential energy fluctuations, |V(n) - V(0)|
Mean: -2.674e-01   Max: 5.244e-01   RMS: 7.414e-02


 JobOver = TRUE
Archival summary:
1\1\qciep03\JobtypUnspecified\HF\STO-3G\46\jcartus\MonJun1812:41:322018MonJun1812:41:322018\0\\#,JobtypUnspecified,HF,STO-3G,\\0,1\C\H,1,1.04188\C,1,1.25804,2,115.722\H,3,1.06102,1,110.446,2,47.234,0\H,3,1.20068,1,95.233,2,171.96,0\C,1,1.78731,2,120.32,3,-158.091,0\C,6,1.24663,1,112.383,2,-91.4001,0\H,7,1.06589,6,104.969,1,62.4465,0\H,7,1.16606,6,136.081,1,170.602,0\H,6,1.40358,1,108.411,2,157.152,0\\HF=-152.709403\\@

 Total job time:  1108.30s(wall), 1070.32s(cpu) 
 Mon Jun 18 12:41:32 2018

        *************************************************************
        *                                                           *
        *  Thank you very much for using Q-Chem.  Have a nice day.  *
        *                                                           *
        *************************************************************


*** MISSION COMPLETED -- STARFLEET OUT ***

0 sent ACK to 0 
now end server 0 ... 
