Process 0 of 1 is on qciep03 - thread support 0
initial socket setup ...start
initial socket setup ...done 
now start server 0 ... 
qciep03.tugraz.at 127.0.1
Q-Chem Developer Version! Running on 127.0.1.*
                  Welcome to Q-Chem
     A Quantum Leap Into The Future Of Chemistry


 Q-Chem 5.0, Q-Chem, Inc., Pleasanton, CA (2017)

 Yihan Shao,  Zhengting Gan,  E. Epifanovsky,  A. T. B. Gilbert,  M. Wormit,  
 J. Kussmann,  A. W. Lange,  A. Behn,  Jia Deng,  Xintian Feng,  D. Ghosh,  
 M. Goldey,  P. R. Horn,  L. D. Jacobson,  I. Kaliman,  T. Kus,  A. Landau,  
 Jie Liu,  E. I. Proynov,  R. M. Richard,  R. P. Steele,  E. J. Sundstrom,  
 H. L. Woodcock III,  P. M. Zimmerman,  D. Zuev,  B. Albrecht,  E. Alguire,  
 S. A. Baeppler,  D. Barton,  Z. Benda,  Y. A. Bernard,  E. J. Berquist,  
 K. B. Bravaya,  H. Burton,  D. Casanova,  Chun-Min Chang,  Yunqing Chen,  
 A. Chien,  K. D. Closser,  M. P. Coons,  S. Dasgupta,  A. L. Dempwolff,  
 M. Diedenhofen,  Hainam Do,  R. G. Edgar,  Po-Tung Fang,  S. Fatehi,  
 Qingguo Feng,  J. Fosso-Tande,  Qinghui Ge,  A. Ghysels,  G. Gidofalvi,  
 J. Gomes,  J. Gonthier,  A. Gunina,  M. W. D. Hanson-Heine,  
 P. H. P. Harbach,  A. W. Hauser,  J. E. Herr,  E. G. Hohenstein,  
 Z. C. Holden,  Kerwin Hui,  T.-C. Jagau,  Hyunjun Ji,  B. Kaduk,  
 K. Khistyaev,  Jaehoon Kim,  P. Klunzinger,  K. Koh,  D. Kosenkov,  
 L. Koulias,  T. Kowalczyk,  C. M. Krauter,  A. Kunitsa,  Ka Un Lao,  
 A. Laurent,  K. V. Lawler,  Joonho Lee,  D. Lefrancois,  S. Lehtola,  
 D. S. Levine,  Yi-Pei Li,  You-Sheng Lin,  Fenglai Liu,  E. Livshits,  
 A. Luenser,  P. Manohar,  E. Mansoor,  S. F. Manzer,  Shan-Ping Mao,  
 Yuezhi Mao,  N. Mardirossian,  A. V. Marenich,  T. Markovich,  
 L. A. Martinez-Martinez,  S. A. Maurer,  N. J. Mayhall,  S. C. McKenzie,  
 J.-M. Mewes,  A. F. Morrison,  J. W. Mullinax,  K. Nanda,  
 T. S. Nguyen-Beck,  R. Olivares-Amaya,  J. A. Parkhill,  T. M. Perrine,  
 F. Plasser,  S. Prager,  A. Prociuk,  E. Ramos,  D. R. Rehn,  F. Rob,  
 M. Schneider,  N. Sergueev,  S. M. Sharada,  S. Sharma,  D. W. Small,  
 T. Stauch,  T. Stein,  Yu-Chuan Su,  A. J. W. Thom,  A. Tkatchenko,  
 T. Tsuchimochi,  L. Vogt,  O. Vydrov,  M. A. Watson,  J. Wenzel,  
 M. de Wergifosse,  T. A. Wesolowski,  A. White,  J. Witte,  A. Yamada,  
 Jun Yang,  K. Yao,  S. Yeganeh,  S. R. Yost,  Zhi-Qiang You,  A. Zech,  
 Igor Ying Zhang,  Xing Zhang,  Yan Zhao,  Ying Zhu,  B. R. Brooks,  
 G. K. L. Chan,  C. J. Cramer,  M. S. Gordon,  W. J. Hehre,  A. Klamt,  
 M. W. Schmidt,  C. D. Sherrill,  D. G. Truhlar,  A. Aspuru-Guzik,  R. Baer,  
 A. T. Bell,  N. A. Besley,  Jeng-Da Chai,  R. A. DiStasio Jr.,  A. Dreuw,  
 B. D. Dunietz,  T. R. Furlani,  Chao-Ping Hsu,  Yousung Jung,  Jing Kong,  
 D. S. Lambrecht,  WanZhen Liang,  C. Ochsenfeld,  V. A. Rassolov,  
 L. V. Slipchenko,  J. E. Subotnik,  T. Van Voorhis,  J. M. Herbert,  
 A. I. Krylov,  P. M. W. Gill,  M. Head-Gordon

 Contributors to earlier versions of Q-Chem not listed above: 
 R. D. Adamson,  B. Austin,  J. Baker,  G. J. O. Beran,  K. Brandhorst,  
 S. T. Brown,  E. F. C. Byrd,  A. K. Chakraborty,  C.-L. Cheng,  
 Siu Hung Chien,  D. M. Chipman,  D. L. Crittenden,  H. Dachsel,  
 R. J. Doerksen,  A. D. Dutoi,  L. Fusti-Molnar,  W. A. Goddard III,  
 A. Golubeva-Zadorozhnaya,  S. R. Gwaltney,  G. Hawkins,  A. Heyden,  
 S. Hirata,  G. Kedziora,  F. J. Keil,  C. Kelley,  Jihan Kim,  R. A. King,  
 R. Z. Khaliullin,  P. P. Korambath,  W. Kurlancheek,  A. M. Lee,  M. S. Lee,  
 S. V. Levchenko,  Ching Yeh Lin,  D. Liotard,  R. C. Lochan,  I. Lotan,  
 P. E. Maslen,  N. Nair,  D. P. O'Neill,  D. Neuhauser,  E. Neuscamman,  
 C. M. Oana,  R. Olson,  B. Peters,  R. Peverati,  P. A. Pieniazek,  
 Y. M. Rhee,  J. Ritchie,  M. A. Rohrdanz,  E. Rosta,  N. J. Russ,  
 H. F. Schaefer III,  N. E. Schultz,  N. Shenvi,  A. C. Simmonett,  A. Sodt,  
 D. Stuck,  K. S. Thanthiriwatte,  V. Vanovschi,  Tao Wang,  A. Warshel,  
 C. F. Williams,  Q. Wu,  X. Xu,  W. Zhang

 Please cite Q-Chem as follows:
 Y. Shao et al., Mol. Phys. 113, 184-215 (2015)
 DOI: 10.1080/00268976.2014.952696

 Q-Chem 5.0.2 for Intel X86 EM64T Linux

 Parts of Q-Chem use Armadillo 5.200.1 (Boston Tea Smuggler).
 http://arma.sourceforge.net/

 Q-Chem begins on Mon Jun 18 11:53:30 2018  


Host: 0

     Scratch files written to /home/jcartus/scratch/Butadien_3.mol.dir//
 Using version located at /usr/local/qchem/bin/qchem

 Parallel job on  1  processors
Symmetry disabled for AIMD jobs.

Total Memory Limit in MB = 2000
Mega-Array Size in MB = 192

Checking the input file for inconsistencies... 	...done.
Finally everything over in PARseQInput

--------------------------------------------------------------
User input:
--------------------------------------------------------------
$rem
AIMD_STEPS                    400
FOCK_EXTRAP_POINTS            12
MAX_SCF_CYCLES                100
BASIS                         sto-3g
AIMD_INIT_VELOC               thermal
FOCK_EXTRAP_ORDER             6
AIMD_TEMP                     400
AIMD_METHOD                   bomd
TIME_STEP                     20
METHOD                        hf
JOBTYPE                       aimd
$end

$molecule
0 1
C    4.57455    0.28078    0.32857
C    3.63350    0.94762    -0.12792
H    5.48494    -0.64860    0.77258
H    5.44531    1.13154    0.34685
C    2.72356    -0.05484    0.08772
C    1.23152    0.48321    -0.45204
H    0.47755    -0.28444    -0.29955
H    0.72397    1.23447    -0.90342
H    3.45918    1.99011    -0.60410
H    2.47130    -1.23859    0.50215
$end


--------------------------------------------------------------
 ----------------------------------------------------------------
             Standard Nuclear Orientation (Angstroms)
    I     Atom           X                Y                Z
 ----------------------------------------------------------------
    1      C       4.5745500000     0.2807800000     0.3285700000
    2      C       3.6335000000     0.9476200000    -0.1279200000
    3      H       5.4849400000    -0.6486000000     0.7725800000
    4      H       5.4453100000     1.1315400000     0.3468500000
    5      C       2.7235600000    -0.0548400000     0.0877200000
    6      C       1.2315200000     0.4832100000    -0.4520400000
    7      H       0.4775500000    -0.2844400000    -0.2995500000
    8      H       0.7239700000     1.2344700000    -0.9034200000
    9      H       3.4591800000     1.9901100000    -0.6041000000
   10      H       2.4713000000    -1.2385900000     0.5021500000
 ----------------------------------------------------------------
 Nuclear Repulsion Energy =   103.1158894103 hartrees
 There are       15 alpha and       15 beta electrons
 Requested basis set is STO-3G
 There are 14 shells and 26 basis functions

 Total QAlloc Memory Limit   2000 MB
 Mega-Array Size       188 MB
 MEM_STATIC part       192 MB

finished with qalloc call

                       Distance Matrix (Angstroms)
             C (  1)   C (  2)   H (  3)   H (  4)   C (  5)   C (  6)
   C (  2)  1.240417
   H (  3)  1.374664  2.605120
   H (  4)  1.217518  1.881991  1.830769
   C (  5)  1.896527  1.370918  2.906339  2.980364
   C (  6)  3.438921  2.467841  4.568618  4.337578  1.675417
   H (  7)  4.183230  3.392263  5.133812  5.205907  2.290689  1.086743
   H (  8)  4.153828  3.024739  5.387185  4.885163  2.577409  1.012789
   H (  9)  2.244044  1.159276  3.600242  2.363506  2.280696  2.693759
   H ( 10)  2.600438  2.554841  3.082734  3.806096  1.279317  2.326398
             H (  7)   H (  8)   H (  9)
   H (  8)  1.653018
   H (  9)  3.762505  2.853412
   H ( 10)  2.351205  3.338385  3.553055

 Job number = 2, Threshold = 1.00E-11
Integral type ranges set in mkLRange.C for JobNum: 2  <1-6|1-6>
Symmetry turned off temporarily
 Using the largest function pair in Schwarz integrals
Total number of integrals generated =            3253
Symmetry turned back on
 A cutoff of  1.0D-11 yielded    103 shell pairs
 There are       373 function pairs
 Job number = 11, Threshold = 1.00E-11
Integral type ranges set in mkLRange.C for JobNum: 11  <1-6|7-7>
Total number of integrals generated =            3730
 Smallest overlap matrix eigenvalue = 1.39E-01
 Multipole matrices computed through 2nd order

 Scale SEOQF with 1.000000e-02/1.000000e-01/1.000000e+00

 Standard Electronic Orientation quadrupole field applied
 Nucleus-field energy     =    -0.0000000022 hartrees
 ENuRep (before)= 103.1158894103
 ENucField = -0.0000000022
 ENuRep (after) = 103.1158894081
 Guess from superposition of atomic densities
 Warning:  Energy on first SCF cycle will be non-variational
 SAD guess density has 30.000000 electrons

 ==================================================
    GEN_SCFMAN: A general SCF calculation manager  
                                                   
    Authors:                                       
        -- Eric Jon Sundstrom 2008-2014            
        -- Paul Horn 2010-2015                     
        -- Yuezhi Mao 2012-                        
        -- Dmitri Zuev 2014                        
        -- Alec White 2015-                        
        -- David Stuck 2015                        
        -- Shaama M.S. 2015                        
        -- Shane Yost 2015-                         
        -- Joonho Lee 2016-                        
        -- David Small 2016-                       
        -- Daniel Levine 2016-                     
        -- Susi Lehtola 2017-                      
        -- Hugh Burton 2017-                       
 ==================================================
 Hartree-Fock
Finding J and K together
 Job number = 22, Threshold = 1.00E-11
Integral type ranges set in mkLRange.C for JobNum: 22  <1-6|1-6>
 MakeJK  time:  CPU       0.09 s  wall       0.10 s
 A restricted SCF calculation will be
 performed using DIIS
 SCF converges when DIIS error is below 1.0e-08
 ---------------------------------------
  Cycle       Energy         DIIS error
 ---------------------------------------
Finding J and K together
 Job number = 22, Threshold = 1.00E-11
Integral type ranges set in mkLRange.C for JobNum: 22  <1-6|1-6>
 MakeJK  time:  CPU       0.12 s  wall       0.12 s
    1    -152.2211373938      2.09e-01  
Finding J and K together
 Job number = 22, Threshold = 1.00E-11
Integral type ranges set in mkLRange.C for JobNum: 22  <1-6|1-6>
 MakeJK  time:  CPU       0.17 s  wall       0.18 s
    2    -152.4911786777      2.29e-02  
Finding J and K together
 Job number = 22, Threshold = 1.00E-11
Integral type ranges set in mkLRange.C for JobNum: 22  <1-6|1-6>
 MakeJK  time:  CPU       0.17 s  wall       0.18 s
    3    -152.5215996852      2.20e-02  
Finding J and K together
 Job number = 22, Threshold = 1.00E-11
Integral type ranges set in mkLRange.C for JobNum: 22  <1-6|1-6>
 MakeJK  time:  CPU       0.17 s  wall       0.17 s
    4    -152.5718311063      3.12e-03  
Finding J and K together
 Job number = 22, Threshold = 1.00E-11
Integral type ranges set in mkLRange.C for JobNum: 22  <1-6|1-6>
 MakeJK  time:  CPU       0.17 s  wall       0.17 s
    5    -152.5737685809      9.33e-04  
Finding J and K together
 Job number = 22, Threshold = 1.00E-11
Integral type ranges set in mkLRange.C for JobNum: 22  <1-6|1-6>
 MakeJK  time:  CPU       0.12 s  wall       0.12 s
    6    -152.5739151529      4.30e-04  
Finding J and K together
 Job number = 22, Threshold = 1.00E-11
Integral type ranges set in mkLRange.C for JobNum: 22  <1-6|1-6>
 MakeJK  time:  CPU       0.17 s  wall       0.17 s
    7    -152.5739667005      2.76e-04  
Finding J and K together
 Job number = 22, Threshold = 1.00E-11
Integral type ranges set in mkLRange.C for JobNum: 22  <1-6|1-6>
 MakeJK  time:  CPU       0.15 s  wall       0.15 s
    8    -152.5739930390      1.20e-04  
Finding J and K together
 Job number = 22, Threshold = 1.00E-11
Integral type ranges set in mkLRange.C for JobNum: 22  <1-6|1-6>
 MakeJK  time:  CPU       0.14 s  wall       0.14 s
    9    -152.5739988774      1.86e-05  
Finding J and K together
 Job number = 22, Threshold = 1.00E-11
Integral type ranges set in mkLRange.C for JobNum: 22  <1-6|1-6>
 MakeJK  time:  CPU       0.13 s  wall       0.13 s
   10    -152.5739990716      3.49e-06  
Finding J and K together
 Job number = 22, Threshold = 1.00E-11
Integral type ranges set in mkLRange.C for JobNum: 22  <1-6|1-6>
 MakeJK  time:  CPU       0.15 s  wall       0.15 s
   11    -152.5739990760      1.24e-06  
Finding J and K together
 Job number = 22, Threshold = 1.00E-11
Integral type ranges set in mkLRange.C for JobNum: 22  <1-6|1-6>
 MakeJK  time:  CPU       0.17 s  wall       0.17 s
   12    -152.5739990766      5.35e-07  
Finding J and K together
 Job number = 22, Threshold = 1.00E-11
Integral type ranges set in mkLRange.C for JobNum: 22  <1-6|1-6>
 MakeJK  time:  CPU       0.14 s  wall       0.14 s
   13    -152.5739990768      1.82e-07  
Finding J and K together
 Job number = 22, Threshold = 1.00E-11
Integral type ranges set in mkLRange.C for JobNum: 22  <1-6|1-6>
 MakeJK  time:  CPU       0.17 s  wall       0.17 s
   14    -152.5739990769      4.57e-08  
   15    -152.5739990769      8.57e-09  Convergence criterion met
 ---------------------------------------
 SCF time:   CPU 2.24s  wall 2.00s 
 Total energy in the final basis set =     -152.5739990769
Wall  1 = 2
Clock 1 = 2.2405910492
 ==================================================
                  Done GEN_SCFMAN                  
 ==================================================

Symmetry turned off temporarily

 --------------------------------------------------------------

                    Orbital Energies (a.u.)
 --------------------------------------------------------------

 Alpha MOs
 -- Occupied --
-11.050 -11.020 -11.014 -10.954  -1.079  -0.859  -0.747  -0.670
 -0.587  -0.532  -0.459  -0.432  -0.417  -0.278  -0.165
 -- Virtual --
  0.226   0.322   0.406   0.443   0.523   0.644   0.698   0.778
  0.918   0.939   1.247
 --------------------------------------------------------------

          Ground-State Mulliken Net Atomic Charges

     Atom                 Charge (a.u.)
  ----------------------------------------
      1 C                    -0.084416
      2 C                    -0.066320
      3 H                     0.115893
      4 H                    -0.030927
      5 C                    -0.008861
      6 C                    -0.181103
      7 H                     0.008280
      8 H                     0.056794
      9 H                     0.102801
     10 H                     0.087859
  ----------------------------------------
  Sum of atomic charges =     0.000000

 -----------------------------------------------------------------
                    Cartesian Multipole Moments
 -----------------------------------------------------------------
    Charge (ESU x 10^10)
                 0.0000
    Dipole Moment (Debye)
         X       0.8599      Y      -0.5449      Z       0.3491
       Tot       1.0762
    Quadrupole Moments (Debye-Ang)
        XX     -18.2593     XY      -3.2136     YY     -21.3406
        XZ       1.9046     YZ      -1.8844     ZZ     -24.3109
    Octopole Moments (Debye-Ang^2)
       XXX    -185.5458    XXY     -28.4635    XYY     -65.0697
       YYY     -26.6502    XXZ      11.1311    XYZ      -6.3239
       YYZ      -0.2743    XZZ     -73.1700    YZZ      -9.8905
       ZZZ       2.9747
    Hexadecapole Moments (Debye-Ang^3)
      XXXX   -1441.0007   XXXY    -205.2701   XXYY    -262.5916
      XYYY     -84.1119   YYYY     -81.9129   XXXZ      39.4350
      XXYZ     -23.2813   XYYZ     -10.3858   YYYZ       4.5205
      XXZZ    -276.7285   XYZZ     -33.0345   YYZZ     -20.8178
      XZZZ     -20.1154   YZZZ       9.2106   ZZZZ     -40.2541
 -----------------------------------------------------------------
drvman_main.C: 73: calling DrvMan  Calculating analytic gradient of the SCF energy
drvman.C : 218: Calculating analytic gradient of the SCF energy
drvman.C: 244: calling SCF_Grad for normal SCF gradient
 Job number = 111, Threshold = 1.00E-11
Integral type ranges set in mkLRange.C for JobNum: 11  <1-6|7-7>
Finding J and K together
 ML is being used
 Job number = 122, Threshold = 1.00E-11
Integral type ranges set in mkLRange.C for JobNum: 22  <1-6|1-6>
Total number of integrals generated =           70356
 MakeJK  time:  CPU       0.40 s  wall       0.41 s
 Gradient of SCF Energy
            1           2           3           4           5           6
    1  -0.4587204   0.0771873   0.1335667   0.0211330   0.4710443  -0.1760622
    2  -0.0546222  -0.0202913  -0.0575085   0.0568955   0.0103666   0.1960291
    3  -0.0935203   0.0392300   0.0414706  -0.0019678   0.1041163  -0.1131660
            7           8           9          10
    1   0.0010731   0.0012208  -0.0151129  -0.0553298
    2   0.0051247  -0.0845464   0.0565343  -0.1079819
    3  -0.0045442   0.0335762  -0.0346441   0.0294493
 Max gradient component =       4.710E-01
 RMS gradient           =       1.414E-01
drvman.C: 248: out of SCF_Grad for normal SCF gradient
 Gradient time:  CPU 0.42 s  wall 0.43 s
 ------------------------------------------------------------------------------
                     drvman        : Timing summary (seconds)
 ------------------------------------------------------------------------------
     job step          cpu (% of tot)      sys (% of tot)     wall (% of tot)
 ------------------------------------------------------------------------------
 ------------------------------------------------------------------------------
   Grand Totals     0.4160E+00          0.1000E-05          0.4296E+00
 ------------------------------------------------------------------------------
drvman_main.C: 77: out of DrvMan =======================================================
            AB INITIO MOLECULAR DYNAMICS
=======================================================
Directory /home/jcartus/scratch/Butadien_3.mol.dir/AIMD already exists
AIMD will take 400 BOMD steps Velocity Verlet integration
Time step = 20.00000 a.u. ( = 0.48378 fs)
Total simulation time requested = 193.511 fs
Integral threshold = 10**(-11)
SCF convergence threshold = 10**(-8)
Generating viewable xyz trajectory,
 file (in Angstroms) at AIMD/View.xyz
Choosing nuclear velocities from Maxwell-Boltzmann
Velocities sampled from Maxwell-Boltzmann at T = 400.0 K
sqrt(kT/m) and (vx,vy,vz) for each atom:
  1   2.4064e-04  -1.44e-04   3.45e-04  -2.66e-04 
  2   2.4064e-04   1.28e-05   1.43e-04   8.08e-05 
  3   8.3036e-04   1.12e-03   8.92e-04  -7.88e-04 
  4   8.3036e-04   1.36e-04  -9.00e-04   5.04e-04 
  5   2.4064e-04  -6.52e-05   1.43e-04  -5.34e-05 
  6   2.4064e-04   5.31e-04  -3.50e-04   5.45e-04 
  7   8.3036e-04   5.84e-04  -6.34e-04   1.85e-04 
  8   8.3036e-04  -6.01e-04  -6.09e-04  -3.87e-04 
  9   8.3036e-04   5.62e-04   5.83e-05   7.81e-04 
 10   8.3036e-04   2.91e-04   1.16e-03  -1.71e-04 
T(nuclear) = 0.01774031 a.u.
v(c.o.m.) = (  1.1340e-04,   6.1702e-05,   7.0259e-05)
T(c.o.m.) = 1.06416e-03 a.u.
kT/2 = 0.000633 a.u.
Tx   = 0.005543 a.u.
Ty   = 0.006516 a.u.
Tz   = 0.005681 a.u.
Mean velocities (a.u.):   2.4259e-04   2.4948e-05   4.2978e-05
Removing c.o.m. velocity
T(nuclear) = 0.01819670 a.u.
v(c.o.m.) = ( -5.6344e-21,  -1.8030e-20,   1.1269e-20)
T(c.o.m.) = 2.38333e-35 a.u.
kT   = 0.001267 a.u. = 0.79 kcal/mol
Tx   = 0.004985 a.u. = 3.13 kcal/mol
Ty   = 0.007002 a.u. = 4.39 kcal/mol
Tz   = 0.006210 a.u. = 3.90 kcal/mol
Initial velocities in m/s
  1     -4.2624e+02      6.9404e+02     -6.5132e+02 
  2     -8.3788e+01      2.5196e+02      1.0764e+02 
  3      1.1189e+03      1.2270e+03     -2.5482e+03 
  4     -1.0324e+03     -2.6918e+03      2.7858e+02 
  5     -2.5439e+02      2.5102e+02     -1.8611e+02 
  6      1.0507e+03     -8.2654e+02      1.1224e+03 
  7     -5.3193e+01     -2.1119e+03     -4.2053e+02 
  8     -2.6457e+03     -2.0569e+03     -1.6699e+03 
  9     -1.0152e+02     -5.9628e+02      8.8323e+02 
 10     -6.9459e+02      1.8186e+03     -1.1981e+03 
----------------------------------------------------------------------------
       Nuclear coordinates (Angst) and velocities (a.u.)
----------------------------------------------------------------------------
             x        y        z            v_x         v_y        v_z
----------------------------------------------------------------------------
1      C    4.5746   0.2808   0.3286    -1.9483e-04   3.1725e-04  -2.9772e-04
2      C    3.6335   0.9476  -0.1279    -3.8300e-05   1.1517e-04   4.9201e-05
3      H    5.4849  -0.6486   0.7726     5.1147e-04   5.6086e-04  -1.1648e-03
4      H    5.4453   1.1315   0.3468    -4.7189e-04  -1.2304e-03   1.2734e-04
5      C    2.7236  -0.0548   0.0877    -1.1628e-04   1.1474e-04  -8.5073e-05
6      C    1.2315   0.4832  -0.4520     4.8026e-04  -3.7781e-04   5.1306e-04
7      H    0.4775  -0.2844  -0.2995    -2.4315e-05  -9.6534e-04  -1.9223e-04
8      H    0.7240   1.2345  -0.9034    -1.2093e-03  -9.4020e-04  -7.6333e-04
9      H    3.4592   1.9901  -0.6041    -4.6403e-05  -2.7256e-04   4.0373e-04
10     H    2.4713  -1.2386   0.5021    -3.1750e-04   8.3129e-04  -5.4767e-04
----------------------------------------------------------------------------
Write nuclear velocities every 1 time steps

TIME STEP #1 (t = 0.000 a.u. = 0.00000 fs)
--------------------------------------
 Instantaneous Temperature = 383.1 K
 ----------------------------------------------------------------
             Standard Nuclear Orientation (Angstroms)
    I     Atom           X                Y                Z
 ----------------------------------------------------------------
    1      C       4.5747073698     0.2844018684     0.3258715611
    2      C       3.6327211987     0.9489370978    -0.1275890799
    3      H       5.4826586597    -0.6393511094     0.7578635780
    4      H       5.4390982787     1.1152401087     0.3483110552
    5      C       2.7200502971    -0.0536757796     0.0863158870
    6      C       1.2374547318     0.4782629550    -0.4460624681
    7      H       0.4772308431    -0.2949519790    -0.3013226450
    8      H       0.7111005261     1.2293899245    -0.9134329618
    9      H       3.4595595105     1.9839685042    -0.5978313490
   10      H       2.4711271632    -1.2235713617     0.4946571777
 ----------------------------------------------------------------
 Nuclear Repulsion Energy =   103.3116111628 hartrees
 There are       15 alpha and       15 beta electrons

                       Distance Matrix (Angstroms)
             C (  1)   C (  2)   H (  3)   H (  4)   C (  5)   C (  6)
   C (  2)  1.238778
   H (  3)  1.365398  2.594023
   H (  4)  1.199153  1.875403  1.802282
   C (  5)  1.900378  1.372573  2.902757  2.971233
   C (  6)  3.430848  2.461760  4.551951  4.323260  1.662671
   H (  7)  4.185491  3.396257  5.127845  5.199115  2.288824  1.093961
   H (  8)  4.166094  3.038432  5.390101  4.894792  2.584886  1.029405
   H (  9)  2.232780  1.149958  3.579475  2.359756  2.273087  2.688481
   H ( 10)  2.593747  2.540922  3.078947  3.781575  1.263867  2.302855
             H (  7)   H (  8)   H (  9)
   H (  8)  1.659214
   H (  9)  3.765060  2.867581
   H ( 10)  2.339132  3.331281  3.529708

 Applying Cartesian multipole field
    Component          Value
    ---------          -----
     (2,0,0)        1.00000E-12
     (0,2,0)        2.00000E-11
     (0,0,2)       -3.00000E-10
 Nucleus-field energy     =    -0.0000000022 hartrees
 ENuRep (before)= 103.3116111628
 ENucField = -0.0000000022
 ENuRep (after) = 103.3116111607
 Job number = 2, Threshold = 1.00E-11
Integral type ranges set in mkLRange.C for JobNum: 2  <1-6|1-6>
Symmetry turned off temporarily
Symmetry turned back on
 Job number = 11, Threshold = 1.00E-11
Integral type ranges set in mkLRange.C for JobNum: 11  <1-6|7-7>
 Smallest overlap matrix eigenvalue = 1.38E-01
 Multipole matrices computed through 2nd order
 Guess from superposition of atomic densities
 Warning:  Energy on first SCF cycle will be non-variational
 SAD guess density has 30.000000 electrons
 SCF convergence criterion is 10**(-8)
 A restricted Hartree-Fock SCF calculation will be
 performed using Pulay DIIS extrapolation
 SCF converges when DIIS error is below 1.0E-08
Finding J and K together
 Job number = 22, Threshold = 1.00E-11
Integral type ranges set in mkLRange.C for JobNum: 22  <1-6|1-6>
 MakeJK  time:  CPU       0.13 s  wall       0.14 s
Fock build time:  0.13 s (CPU) 0.14 s (wall)
DIIS Errors:  Max 1.37E+00 RMS 2.10E-01

Current DIIS subspace size = 1
REM_GRID_RESTART_DIIS = 0

 ---------------------------------------
  Cycle       Energy         DIIS Error
 ---------------------------------------
    1    -152.2448931933      2.10E-01  00000
Finding J and K together
 Job number = 22, Threshold = 1.00E-11
Integral type ranges set in mkLRange.C for JobNum: 22  <1-6|1-6>
 MakeJK  time:  CPU       0.17 s  wall       0.18 s
Fock build time:  0.17 s (CPU) 0.18 s (wall)
DIIS Errors:  Max 1.41E-01 RMS 2.21E-02

Current DIIS subspace size = 2
REM_GRID_RESTART_DIIS = 0

    2    -152.5139651785      2.21E-02  00000
Finding J and K together
 Job number = 22, Threshold = 1.00E-11
Integral type ranges set in mkLRange.C for JobNum: 22  <1-6|1-6>
 MakeJK  time:  CPU       0.12 s  wall       0.13 s
Fock build time:  0.12 s (CPU) 0.13 s (wall)
DIIS Errors:  Max 1.42E-01 RMS 2.04E-02

Current DIIS subspace size = 3
REM_GRID_RESTART_DIIS = 0

    3    -152.5463840551      2.04E-02  00000
Finding J and K together
 Job number = 22, Threshold = 1.00E-11
Integral type ranges set in mkLRange.C for JobNum: 22  <1-6|1-6>
 MakeJK  time:  CPU       0.14 s  wall       0.15 s
Fock build time:  0.14 s (CPU) 0.15 s (wall)
DIIS Errors:  Max 1.73E-02 RMS 3.11E-03

Current DIIS subspace size = 4
REM_GRID_RESTART_DIIS = 0

    4    -152.5890562964      3.11E-03  00000
Finding J and K together
 Job number = 22, Threshold = 1.00E-11
Integral type ranges set in mkLRange.C for JobNum: 22  <1-6|1-6>
 MakeJK  time:  CPU       0.16 s  wall       0.17 s
Fock build time:  0.16 s (CPU) 0.17 s (wall)
DIIS Errors:  Max 5.54E-03 RMS 8.98E-04

Current DIIS subspace size = 5
REM_GRID_RESTART_DIIS = 0

    5    -152.5909296605      8.98E-04  00000
Finding J and K together
 Job number = 22, Threshold = 1.00E-11
Integral type ranges set in mkLRange.C for JobNum: 22  <1-6|1-6>
 MakeJK  time:  CPU       0.17 s  wall       0.19 s
Fock build time:  0.17 s (CPU) 0.19 s (wall)
DIIS Errors:  Max 4.08E-03 RMS 4.01E-04

Current DIIS subspace size = 6
REM_GRID_RESTART_DIIS = 0

    6    -152.5910602983      4.01E-04  00000
Finding J and K together
 Job number = 22, Threshold = 1.00E-11
Integral type ranges set in mkLRange.C for JobNum: 22  <1-6|1-6>
 MakeJK  time:  CPU       0.16 s  wall       0.18 s
Fock build time:  0.16 s (CPU) 0.18 s (wall)
DIIS Errors:  Max 2.46E-03 RMS 2.53E-04

Current DIIS subspace size = 7
REM_GRID_RESTART_DIIS = 0

    7    -152.5911048105      2.53E-04  00000
Finding J and K together
 Job number = 22, Threshold = 1.00E-11
Integral type ranges set in mkLRange.C for JobNum: 22  <1-6|1-6>
 MakeJK  time:  CPU       0.14 s  wall       0.14 s
Fock build time:  0.14 s (CPU) 0.14 s (wall)
DIIS Errors:  Max 1.10E-03 RMS 1.07E-04

Current DIIS subspace size = 8
REM_GRID_RESTART_DIIS = 0

    8    -152.5911264159      1.07E-04  00000
Finding J and K together
 Job number = 22, Threshold = 1.00E-11
Integral type ranges set in mkLRange.C for JobNum: 22  <1-6|1-6>
 MakeJK  time:  CPU       0.10 s  wall       0.10 s
Fock build time:  0.10 s (CPU) 0.10 s (wall)
DIIS Errors:  Max 1.06E-04 RMS 1.61E-05

Current DIIS subspace size = 9
REM_GRID_RESTART_DIIS = 0

    9    -152.5911310006      1.61E-05  00000
Finding J and K together
 Job number = 22, Threshold = 1.00E-11
Integral type ranges set in mkLRange.C for JobNum: 22  <1-6|1-6>
 MakeJK  time:  CPU       0.12 s  wall       0.12 s
Fock build time:  0.12 s (CPU) 0.12 s (wall)
DIIS Errors:  Max 1.85E-05 RMS 3.14E-06

Current DIIS subspace size = 10
REM_GRID_RESTART_DIIS = 0

   10    -152.5911311432      3.14E-06  00000
Finding J and K together
 Job number = 22, Threshold = 1.00E-11
Integral type ranges set in mkLRange.C for JobNum: 22  <1-6|1-6>
 MakeJK  time:  CPU       0.12 s  wall       0.12 s
Fock build time:  0.12 s (CPU) 0.12 s (wall)
DIIS Errors:  Max 8.65E-06 RMS 1.06E-06

Current DIIS subspace size = 11
REM_GRID_RESTART_DIIS = 0

   11    -152.5911311466      1.06E-06  00000
Finding J and K together
 Job number = 22, Threshold = 1.00E-11
Integral type ranges set in mkLRange.C for JobNum: 22  <1-6|1-6>
 MakeJK  time:  CPU       0.11 s  wall       0.11 s
Fock build time:  0.11 s (CPU) 0.11 s (wall)
DIIS Errors:  Max 4.66E-06 RMS 4.74E-07

Current DIIS subspace size = 12
REM_GRID_RESTART_DIIS = 0

   12    -152.5911311471      4.74E-07  00000
Finding J and K together
 Job number = 22, Threshold = 1.00E-11
Integral type ranges set in mkLRange.C for JobNum: 22  <1-6|1-6>
 MakeJK  time:  CPU       0.12 s  wall       0.11 s
Fock build time:  0.12 s (CPU) 0.11 s (wall)
DIIS Errors:  Max 1.36E-06 RMS 1.54E-07

Current DIIS subspace size = 13
REM_GRID_RESTART_DIIS = 0

   13    -152.5911311473      1.54E-07  00000
Finding J and K together
 Job number = 22, Threshold = 1.00E-11
Integral type ranges set in mkLRange.C for JobNum: 22  <1-6|1-6>
 MakeJK  time:  CPU       0.10 s  wall       0.10 s
Fock build time:  0.10 s (CPU) 0.10 s (wall)
DIIS Errors:  Max 2.45E-07 RMS 3.87E-08

Current DIIS subspace size = 14
REM_GRID_RESTART_DIIS = 0

   14    -152.5911311473      3.87E-08  00000
Finding J and K together
 Job number = 22, Threshold = 1.00E-11
Integral type ranges set in mkLRange.C for JobNum: 22  <1-6|1-6>
 MakeJK  time:  CPU       0.16 s  wall       0.16 s
Fock build time:  0.16 s (CPU) 0.16 s (wall)
DIIS Errors:  Max 4.56E-08 RMS 7.36E-09

Current DIIS subspace size = 15
REM_GRID_RESTART_DIIS = 0

   15    -152.5911311473      7.36E-09  00000 Convergence criterion met
 ---------------------------------------
 SCF time:  CPU 2.05 s  wall 2.12 s
 SCF   energy in the final basis set = -152.59113115
 Total energy in the final basis set = -152.59113115
drvman_main.C: 73: calling DrvMan  Calculating analytic gradient of the SCF energy
drvman.C : 218: Calculating analytic gradient of the SCF energy
drvman.C: 244: calling SCF_Grad for normal SCF gradient
 Job number = 111, Threshold = 1.00E-11
Integral type ranges set in mkLRange.C for JobNum: 11  <1-6|7-7>
Finding J and K together
 ML is being used
 Job number = 122, Threshold = 1.00E-11
Integral type ranges set in mkLRange.C for JobNum: 22  <1-6|1-6>
 MakeJK  time:  CPU       0.43 s  wall       0.43 s
 Gradient of SCF Energy
            1           2           3           4           5           6
    1  -0.4561725   0.0794276   0.1340205   0.0168821   0.4673189  -0.1593469
    2  -0.0480446  -0.0159060  -0.0546237   0.0492278   0.0056099   0.1838156
    3  -0.0933130   0.0369282   0.0395422  -0.0006998   0.1055475  -0.1032432
            7           8           9          10
    1  -0.0038579  -0.0088963  -0.0142385  -0.0551370
    2   0.0019161  -0.0700953   0.0512515  -0.1031514
    3  -0.0048303   0.0251896  -0.0323174   0.0271962
 Max gradient component =       4.673E-01
 RMS gradient           =       1.385E-01
drvman.C: 248: out of SCF_Grad for normal SCF gradient
 Gradient time:  CPU 0.44 s  wall 0.44 s
 ------------------------------------------------------------------------------
                     drvman        : Timing summary (seconds)
 ------------------------------------------------------------------------------
     job step          cpu (% of tot)      sys (% of tot)     wall (% of tot)
 ------------------------------------------------------------------------------
 ------------------------------------------------------------------------------
   Grand Totals     0.4400E+00          0.2000E-05          0.4429E+00
 ------------------------------------------------------------------------------
drvman_main.C: 77: out of DrvMan  Time for this dynamics step: 2.5 s (CPU) 2.6 s (wall)

TIME STEP #2 (t = 20.000 a.u. = 0.48378 fs)
--------------------------------------
 Instantaneous Temperature = 739.4 K
 ----------------------------------------------------------------
             Standard Nuclear Orientation (Angstroms)
    I     Atom           X                Y                Z
 ----------------------------------------------------------------
    1      C       4.5792789074     0.2884886423     0.3240760688
    2      C       3.6311738138     0.9504081103    -0.1276154968
    3      H       5.4649359813    -0.6238086844     0.7385912552
    4      H       5.4309414615     1.0932683710     0.3498527331
    5      C       2.7120185679    -0.0525658435     0.0838904404
    6      C       1.2449313895     0.4715372121    -0.4390859001
    7      H       0.4773561753    -0.3056847246    -0.3025387624
    8      H       0.6992560497     1.2323859691    -0.9263481763
    9      H       3.4615795226     1.9719219971    -0.5878392051
   10      H       2.4773070090    -1.1966680049     0.4840309095
 ----------------------------------------------------------------
 Nuclear Repulsion Energy =   103.5575028429 hartrees
 There are       15 alpha and       15 beta electrons

                       Distance Matrix (Angstroms)
             C (  1)   C (  2)   H (  3)   H (  4)   C (  5)   C (  6)
   C (  2)  1.241397
   H (  3)  1.337347  2.567325
   H (  4)  1.172034  1.867498  1.760860
   C (  5)  1.913287  1.376785  2.886781  2.962468
   C (  6)  3.425463  2.453667  4.516098  4.304841  1.643330
   H (  7)  4.191832  3.399255  5.105008  5.188515  2.281910  1.100859
   H (  8)  4.184385  3.051824  5.378586  4.902743  2.592855  1.055498
   H (  9)  2.216932  1.133163  3.537043  2.351528  2.260888  2.680823
   H ( 10)  2.578674  2.513057  3.052687  3.739755  1.234573  2.270199
             H (  7)   H (  8)   H (  9)
   H (  8)  1.674527
   H (  9)  3.764901  2.879572
   H ( 10)  2.326445  3.324295  3.486784

 Applying Cartesian multipole field
    Component          Value
    ---------          -----
     (2,0,0)        1.00000E-12
     (0,2,0)        2.00000E-11
     (0,0,2)       -3.00000E-10
 Nucleus-field energy     =    -0.0000000021 hartrees
 ENuRep (before)= 103.5575028429
 ENucField = -0.0000000021
 ENuRep (after) = 103.5575028408
 Job number = 2, Threshold = 1.00E-11
Integral type ranges set in mkLRange.C for JobNum: 2  <1-6|1-6>
Symmetry turned off temporarily
Symmetry turned back on
 Job number = 11, Threshold = 1.00E-11
Integral type ranges set in mkLRange.C for JobNum: 11  <1-6|7-7>
 Smallest overlap matrix eigenvalue = 1.39E-01
 Multipole matrices computed through 2nd order
 Guess from superposition of atomic densities
 Warning:  Energy on first SCF cycle will be non-variational
 SAD guess density has 30.000000 electrons
 SCF convergence criterion is 10**(-8)
 A restricted Hartree-Fock SCF calculation will be
 performed using Pulay DIIS extrapolation
 SCF converges when DIIS error is below 1.0E-08
Finding J and K together
 Job number = 22, Threshold = 1.00E-11
Integral type ranges set in mkLRange.C for JobNum: 22  <1-6|1-6>
 MakeJK  time:  CPU       0.13 s  wall       0.14 s
Fock build time:  0.13 s (CPU) 0.14 s (wall)
DIIS Errors:  Max 1.36E+00 RMS 2.10E-01

Current DIIS subspace size = 1
REM_GRID_RESTART_DIIS = 0

 ---------------------------------------
  Cycle       Energy         DIIS Error
 ---------------------------------------
    1    -152.2799786655      2.10E-01  00000
Finding J and K together
 Job number = 22, Threshold = 1.00E-11
Integral type ranges set in mkLRange.C for JobNum: 22  <1-6|1-6>
 MakeJK  time:  CPU       0.16 s  wall       0.17 s
Fock build time:  0.16 s (CPU) 0.17 s (wall)
DIIS Errors:  Max 1.34E-01 RMS 2.07E-02

Current DIIS subspace size = 2
REM_GRID_RESTART_DIIS = 0

    2    -152.5575189968      2.07E-02  00000
Finding J and K together
 Job number = 22, Threshold = 1.00E-11
Integral type ranges set in mkLRange.C for JobNum: 22  <1-6|1-6>
 MakeJK  time:  CPU       0.17 s  wall       0.18 s
Fock build time:  0.17 s (CPU) 0.18 s (wall)
DIIS Errors:  Max 1.23E-01 RMS 1.78E-02

Current DIIS subspace size = 3
REM_GRID_RESTART_DIIS = 0

    3    -152.5918920828      1.78E-02  00000
Finding J and K together
 Job number = 22, Threshold = 1.00E-11
Integral type ranges set in mkLRange.C for JobNum: 22  <1-6|1-6>
 MakeJK  time:  CPU       0.17 s  wall       0.18 s
Fock build time:  0.17 s (CPU) 0.18 s (wall)
DIIS Errors:  Max 1.85E-02 RMS 3.11E-03

Current DIIS subspace size = 4
REM_GRID_RESTART_DIIS = 0

    4    -152.6240422203      3.11E-03  00000
Finding J and K together
 Job number = 22, Threshold = 1.00E-11
Integral type ranges set in mkLRange.C for JobNum: 22  <1-6|1-6>
 MakeJK  time:  CPU       0.17 s  wall       0.18 s
Fock build time:  0.17 s (CPU) 0.18 s (wall)
DIIS Errors:  Max 4.95E-03 RMS 8.36E-04

Current DIIS subspace size = 5
REM_GRID_RESTART_DIIS = 0

    5    -152.6258208256      8.36E-04  00000
Finding J and K together
 Job number = 22, Threshold = 1.00E-11
Integral type ranges set in mkLRange.C for JobNum: 22  <1-6|1-6>
 MakeJK  time:  CPU       0.18 s  wall       0.18 s
Fock build time:  0.18 s (CPU) 0.18 s (wall)
DIIS Errors:  Max 3.51E-03 RMS 3.51E-04

Current DIIS subspace size = 6
REM_GRID_RESTART_DIIS = 0

    6    -152.6259274416      3.51E-04  00000
Finding J and K together
 Job number = 22, Threshold = 1.00E-11
Integral type ranges set in mkLRange.C for JobNum: 22  <1-6|1-6>
 MakeJK  time:  CPU       0.17 s  wall       0.18 s
Fock build time:  0.18 s (CPU) 0.18 s (wall)
DIIS Errors:  Max 2.07E-03 RMS 2.15E-04

Current DIIS subspace size = 7
REM_GRID_RESTART_DIIS = 0

    7    -152.6259611179      2.15E-04  00000
Finding J and K together
 Job number = 22, Threshold = 1.00E-11
Integral type ranges set in mkLRange.C for JobNum: 22  <1-6|1-6>
 MakeJK  time:  CPU       0.16 s  wall       0.17 s
Fock build time:  0.16 s (CPU) 0.17 s (wall)
DIIS Errors:  Max 9.02E-04 RMS 8.95E-05

Current DIIS subspace size = 8
REM_GRID_RESTART_DIIS = 0

    8    -152.6259759333      8.95E-05  00000
Finding J and K together
 Job number = 22, Threshold = 1.00E-11
Integral type ranges set in mkLRange.C for JobNum: 22  <1-6|1-6>
 MakeJK  time:  CPU       0.17 s  wall       0.17 s
Fock build time:  0.17 s (CPU) 0.17 s (wall)
DIIS Errors:  Max 8.61E-05 RMS 1.30E-05

Current DIIS subspace size = 9
REM_GRID_RESTART_DIIS = 0

    9    -152.6259790424      1.30E-05  00000
Finding J and K together
 Job number = 22, Threshold = 1.00E-11
Integral type ranges set in mkLRange.C for JobNum: 22  <1-6|1-6>
 MakeJK  time:  CPU       0.13 s  wall       0.13 s
Fock build time:  0.13 s (CPU) 0.13 s (wall)
DIIS Errors:  Max 1.55E-05 RMS 2.61E-06

Current DIIS subspace size = 10
REM_GRID_RESTART_DIIS = 0

   10    -152.6259791333      2.61E-06  00000
Finding J and K together
 Job number = 22, Threshold = 1.00E-11
Integral type ranges set in mkLRange.C for JobNum: 22  <1-6|1-6>
 MakeJK  time:  CPU       0.16 s  wall       0.16 s
Fock build time:  0.16 s (CPU) 0.16 s (wall)
DIIS Errors:  Max 6.35E-06 RMS 7.95E-07

Current DIIS subspace size = 11
REM_GRID_RESTART_DIIS = 0

   11    -152.6259791355      7.95E-07  00000
Finding J and K together
 Job number = 22, Threshold = 1.00E-11
Integral type ranges set in mkLRange.C for JobNum: 22  <1-6|1-6>
 MakeJK  time:  CPU       0.13 s  wall       0.13 s
Fock build time:  0.13 s (CPU) 0.13 s (wall)
DIIS Errors:  Max 3.55E-06 RMS 3.65E-07

Current DIIS subspace size = 12
REM_GRID_RESTART_DIIS = 0

   12    -152.6259791357      3.65E-07  00000
Finding J and K together
 Job number = 22, Threshold = 1.00E-11
Integral type ranges set in mkLRange.C for JobNum: 22  <1-6|1-6>
 MakeJK  time:  CPU       0.13 s  wall       0.13 s
Fock build time:  0.13 s (CPU) 0.13 s (wall)
DIIS Errors:  Max 9.79E-07 RMS 1.12E-07

Current DIIS subspace size = 13
REM_GRID_RESTART_DIIS = 0

   13    -152.6259791358      1.12E-07  00000
Finding J and K together
 Job number = 22, Threshold = 1.00E-11
Integral type ranges set in mkLRange.C for JobNum: 22  <1-6|1-6>
 MakeJK  time:  CPU       0.17 s  wall       0.17 s
Fock build time:  0.17 s (CPU) 0.17 s (wall)
DIIS Errors:  Max 1.82E-07 RMS 2.88E-08

Current DIIS subspace size = 14
REM_GRID_RESTART_DIIS = 0

   14    -152.6259791358      2.88E-08  00000
Finding J and K together
 Job number = 22, Threshold = 1.00E-11
Integral type ranges set in mkLRange.C for JobNum: 22  <1-6|1-6>
 MakeJK  time:  CPU       0.14 s  wall       0.13 s
Fock build time:  0.14 s (CPU) 0.13 s (wall)
DIIS Errors:  Max 3.69E-08 RMS 5.49E-09

Current DIIS subspace size = 15
REM_GRID_RESTART_DIIS = 0

   15    -152.6259791358      5.49E-09  00000 Convergence criterion met
 ---------------------------------------
 SCF time:  CPU 2.37 s  wall 2.44 s
 SCF   energy in the final basis set = -152.62597914
 Total energy in the final basis set = -152.62597914
drvman_main.C: 73: calling DrvMan  Calculating analytic gradient of the SCF energy
drvman.C : 218: Calculating analytic gradient of the SCF energy
drvman.C: 244: calling SCF_Grad for normal SCF gradient
 Job number = 111, Threshold = 1.00E-11
Integral type ranges set in mkLRange.C for JobNum: 11  <1-6|7-7>
Finding J and K together
 ML is being used
 Job number = 122, Threshold = 1.00E-11
Integral type ranges set in mkLRange.C for JobNum: 22  <1-6|1-6>
 MakeJK  time:  CPU       0.42 s  wall       0.42 s
 Gradient of SCF Energy
            1           2           3           4           5           6
    1  -0.4369606   0.0746777   0.1320554   0.0091758   0.4560470  -0.1377572
    2  -0.0445565   0.0004438  -0.0494425   0.0376962  -0.0066448   0.1649520
    3  -0.0878069   0.0282393   0.0364578   0.0005849   0.1083349  -0.0887423
            7           8           9          10
    1  -0.0082689  -0.0234231  -0.0124724  -0.0530737
    2  -0.0013207  -0.0492166   0.0410758  -0.0929866
    3  -0.0050175   0.0123690  -0.0277424   0.0233232
 Max gradient component =       4.560E-01
 RMS gradient           =       1.318E-01
drvman.C: 248: out of SCF_Grad for normal SCF gradient
 Gradient time:  CPU 0.43 s  wall 0.43 s
 ------------------------------------------------------------------------------
                     drvman        : Timing summary (seconds)
 ------------------------------------------------------------------------------
     job step          cpu (% of tot)      sys (% of tot)     wall (% of tot)
 ------------------------------------------------------------------------------
 ------------------------------------------------------------------------------
   Grand Totals     0.4280E+00          0.2000E-05          0.4305E+00
 ------------------------------------------------------------------------------
drvman_main.C: 77: out of DrvMan  Time for this dynamics step: 2.8 s (CPU) 2.9 s (wall)

TIME STEP #3 (t = 40.000 a.u. = 0.96755 fs)
--------------------------------------
 Instantaneous Temperature = 1465.5 K
 ----------------------------------------------------------------
             Standard Nuclear Orientation (Angstroms)
    I     Atom           X                Y                Z
 ----------------------------------------------------------------
    1      C       4.5880787084     0.2930065690     0.3231302431
    2      C       3.6289038077     0.9518748287    -0.1279151722
    3      H       5.4319983697    -0.6025696795     0.7151183958
    4      H       5.4217274439     1.0669534192     0.3513270252
    5      C       2.6995738849    -0.0513916088     0.0804166874
    6      C       1.2537410592     0.4632153058    -0.4312506146
    7      H       0.4784342183    -0.3162653012    -0.3031767847
    8      H       0.6901102955     1.2410525608    -0.9406884953
    9      H       3.4650365602     1.9551428930    -0.5746506854
   10      H       2.4896018117    -1.1590510797     0.4707174284
 ----------------------------------------------------------------
 Nuclear Repulsion Energy =   103.8786887156 hartrees
 There are       15 alpha and       15 beta electrons

                       Distance Matrix (Angstroms)
             C (  1)   C (  2)   H (  3)   H (  4)   C (  5)   C (  6)
   C (  2)  1.248025
   H (  3)  1.291477  2.525501
   H (  4)  1.137875  1.859337  1.708730
   C (  5)  1.934934  1.383329  2.858809  2.955369
   C (  6)  3.422845  2.443808  4.461826  4.283578  1.617732
   H (  7)  4.201506  3.400640  5.065244  5.174729  2.269529  1.106839
   H (  8)  4.205970  3.062798  5.350340  4.907934  2.598271  1.087307
   H (  9)  2.197710  1.110393  3.474815  2.339862  2.245268  2.671374
   H ( 10)  2.556141  2.472322  3.004513  3.683302  1.193035  2.229943
             H (  7)   H (  8)   H (  9)
   H (  8)  1.696015
   H (  9)  3.762019  2.888620
   H ( 10)  2.313870  3.315228  3.426729

 Applying Cartesian multipole field
    Component          Value
    ---------          -----
     (2,0,0)        1.00000E-12
     (0,2,0)        2.00000E-11
     (0,0,2)       -3.00000E-10
 Nucleus-field energy     =    -0.0000000020 hartrees
 ENuRep (before)= 103.8786887156
 ENucField = -0.0000000020
 ENuRep (after) = 103.8786887136
 Job number = 2, Threshold = 1.00E-11
Integral type ranges set in mkLRange.C for JobNum: 2  <1-6|1-6>
Symmetry turned off temporarily
Symmetry turned back on
 Job number = 11, Threshold = 1.00E-11
Integral type ranges set in mkLRange.C for JobNum: 11  <1-6|7-7>
 Smallest overlap matrix eigenvalue = 1.42E-01
 Multipole matrices computed through 2nd order
 Guess from superposition of atomic densities
 Warning:  Energy on first SCF cycle will be non-variational
 SAD guess density has 30.000000 electrons
 SCF convergence criterion is 10**(-8)
 A restricted Hartree-Fock SCF calculation will be
 performed using Pulay DIIS extrapolation
 SCF converges when DIIS error is below 1.0E-08
Finding J and K together
 Job number = 22, Threshold = 1.00E-11
Integral type ranges set in mkLRange.C for JobNum: 22  <1-6|1-6>
 MakeJK  time:  CPU       0.13 s  wall       0.13 s
Fock build time:  0.13 s (CPU) 0.13 s (wall)
DIIS Errors:  Max 1.34E+00 RMS 2.10E-01

Current DIIS subspace size = 1
REM_GRID_RESTART_DIIS = 0

 ---------------------------------------
  Cycle       Energy         DIIS Error
 ---------------------------------------
    1    -152.3337745444      2.10E-01  00000
Finding J and K together
 Job number = 22, Threshold = 1.00E-11
Integral type ranges set in mkLRange.C for JobNum: 22  <1-6|1-6>
 MakeJK  time:  CPU       0.14 s  wall       0.14 s
Fock build time:  0.14 s (CPU) 0.14 s (wall)
DIIS Errors:  Max 1.23E-01 RMS 1.90E-02

Current DIIS subspace size = 2
REM_GRID_RESTART_DIIS = 0

    2    -152.6145748318      1.90E-02  00000
Finding J and K together
 Job number = 22, Threshold = 1.00E-11
Integral type ranges set in mkLRange.C for JobNum: 22  <1-6|1-6>
 MakeJK  time:  CPU       0.12 s  wall       0.12 s
Fock build time:  0.12 s (CPU) 0.12 s (wall)
DIIS Errors:  Max 9.97E-02 RMS 1.46E-02

Current DIIS subspace size = 3
REM_GRID_RESTART_DIIS = 0

    3    -152.6497881161      1.46E-02  00000
Finding J and K together
 Job number = 22, Threshold = 1.00E-11
Integral type ranges set in mkLRange.C for JobNum: 22  <1-6|1-6>
 MakeJK  time:  CPU       0.15 s  wall       0.15 s
Fock build time:  0.15 s (CPU) 0.15 s (wall)
DIIS Errors:  Max 2.00E-02 RMS 3.15E-03

Current DIIS subspace size = 4
REM_GRID_RESTART_DIIS = 0

    4    -152.6711741706      3.15E-03  00000
Finding J and K together
 Job number = 22, Threshold = 1.00E-11
Integral type ranges set in mkLRange.C for JobNum: 22  <1-6|1-6>
 MakeJK  time:  CPU       0.12 s  wall       0.12 s
Fock build time:  0.12 s (CPU) 0.12 s (wall)
DIIS Errors:  Max 4.18E-03 RMS 7.56E-04

Current DIIS subspace size = 5
REM_GRID_RESTART_DIIS = 0

    5    -152.6728514067      7.56E-04  00000
Finding J and K together
 Job number = 22, Threshold = 1.00E-11
Integral type ranges set in mkLRange.C for JobNum: 22  <1-6|1-6>
 MakeJK  time:  CPU       0.14 s  wall       0.14 s
Fock build time:  0.14 s (CPU) 0.14 s (wall)
DIIS Errors:  Max 2.77E-03 RMS 2.86E-04

Current DIIS subspace size = 6
REM_GRID_RESTART_DIIS = 0

    6    -152.6729318563      2.86E-04  00000
Finding J and K together
 Job number = 22, Threshold = 1.00E-11
Integral type ranges set in mkLRange.C for JobNum: 22  <1-6|1-6>
 MakeJK  time:  CPU       0.15 s  wall       0.15 s
Fock build time:  0.15 s (CPU) 0.15 s (wall)
DIIS Errors:  Max 1.58E-03 RMS 1.67E-04

Current DIIS subspace size = 7
REM_GRID_RESTART_DIIS = 0

    7    -152.6729540113      1.67E-04  00000
Finding J and K together
 Job number = 22, Threshold = 1.00E-11
Integral type ranges set in mkLRange.C for JobNum: 22  <1-6|1-6>
 MakeJK  time:  CPU       0.16 s  wall       0.16 s
Fock build time:  0.16 s (CPU) 0.16 s (wall)
DIIS Errors:  Max 6.92E-04 RMS 6.98E-05

Current DIIS subspace size = 8
REM_GRID_RESTART_DIIS = 0

    8    -152.6729622734      6.98E-05  00000
Finding J and K together
 Job number = 22, Threshold = 1.00E-11
Integral type ranges set in mkLRange.C for JobNum: 22  <1-6|1-6>
 MakeJK  time:  CPU       0.17 s  wall       0.17 s
Fock build time:  0.17 s (CPU) 0.17 s (wall)
DIIS Errors:  Max 7.10E-05 RMS 1.02E-05

Current DIIS subspace size = 9
REM_GRID_RESTART_DIIS = 0

    9    -152.6729640868      1.02E-05  00000
Finding J and K together
 Job number = 22, Threshold = 1.00E-11
Integral type ranges set in mkLRange.C for JobNum: 22  <1-6|1-6>
 MakeJK  time:  CPU       0.15 s  wall       0.15 s
Fock build time:  0.15 s (CPU) 0.15 s (wall)
DIIS Errors:  Max 1.17E-05 RMS 2.03E-06

Current DIIS subspace size = 10
REM_GRID_RESTART_DIIS = 0

   10    -152.6729641393      2.03E-06  00000
Finding J and K together
 Job number = 22, Threshold = 1.00E-11
Integral type ranges set in mkLRange.C for JobNum: 22  <1-6|1-6>
 MakeJK  time:  CPU       0.11 s  wall       0.11 s
Fock build time:  0.11 s (CPU) 0.11 s (wall)
DIIS Errors:  Max 3.94E-06 RMS 5.23E-07

Current DIIS subspace size = 11
REM_GRID_RESTART_DIIS = 0

   11    -152.6729641405      5.23E-07  00000
Finding J and K together
 Job number = 22, Threshold = 1.00E-11
Integral type ranges set in mkLRange.C for JobNum: 22  <1-6|1-6>
 MakeJK  time:  CPU       0.13 s  wall       0.13 s
Fock build time:  0.13 s (CPU) 0.13 s (wall)
DIIS Errors:  Max 2.28E-06 RMS 2.41E-07

Current DIIS subspace size = 12
REM_GRID_RESTART_DIIS = 0

   12    -152.6729641407      2.41E-07  00000
Finding J and K together
 Job number = 22, Threshold = 1.00E-11
Integral type ranges set in mkLRange.C for JobNum: 22  <1-6|1-6>
 MakeJK  time:  CPU       0.16 s  wall       0.16 s
Fock build time:  0.16 s (CPU) 0.16 s (wall)
DIIS Errors:  Max 6.39E-07 RMS 7.23E-08

Current DIIS subspace size = 13
REM_GRID_RESTART_DIIS = 0

   13    -152.6729641407      7.23E-08  00000
Finding J and K together
 Job number = 22, Threshold = 1.00E-11
Integral type ranges set in mkLRange.C for JobNum: 22  <1-6|1-6>
 MakeJK  time:  CPU       0.14 s  wall       0.14 s
Fock build time:  0.14 s (CPU) 0.14 s (wall)
DIIS Errors:  Max 1.32E-07 RMS 1.96E-08

Current DIIS subspace size = 14
REM_GRID_RESTART_DIIS = 0

   14    -152.6729641407      1.96E-08  00000
Finding J and K together
 Job number = 22, Threshold = 1.00E-11
Integral type ranges set in mkLRange.C for JobNum: 22  <1-6|1-6>
 MakeJK  time:  CPU       0.12 s  wall       0.13 s
Fock build time:  0.12 s (CPU) 0.13 s (wall)
DIIS Errors:  Max 2.56E-08 RMS 3.83E-09

Current DIIS subspace size = 15
REM_GRID_RESTART_DIIS = 0

   15    -152.6729641407      3.83E-09  00000 Convergence criterion met
 ---------------------------------------
 SCF time:  CPU 2.12 s  wall 2.13 s
 SCF   energy in the final basis set = -152.67296414
 Total energy in the final basis set = -152.67296414
drvman_main.C: 73: calling DrvMan  Calculating analytic gradient of the SCF energy
drvman.C : 218: Calculating analytic gradient of the SCF energy
drvman.C: 244: calling SCF_Grad for normal SCF gradient
 Job number = 111, Threshold = 1.00E-11
Integral type ranges set in mkLRange.C for JobNum: 11  <1-6|7-7>
Finding J and K together
 ML is being used
 Job number = 122, Threshold = 1.00E-11
Integral type ranges set in mkLRange.C for JobNum: 22  <1-6|1-6>
 MakeJK  time:  CPU       0.43 s  wall       0.43 s
 Gradient of SCF Energy
            1           2           3           4           5           6
    1  -0.3991845   0.0631824   0.1263558  -0.0029082   0.4365181  -0.1145700
    2  -0.0439747   0.0276779  -0.0406053   0.0216410  -0.0277390   0.1439316
    3  -0.0767690   0.0138205   0.0316748   0.0017312   0.1127444  -0.0724010
            7           8           9          10
    1  -0.0119190  -0.0388032  -0.0097942  -0.0488771
    2  -0.0042901  -0.0268442   0.0257183  -0.0755157
    3  -0.0051599  -0.0018965  -0.0208619   0.0171174
 Max gradient component =       4.365E-01
 RMS gradient           =       1.220E-01
drvman.C: 248: out of SCF_Grad for normal SCF gradient
 Gradient time:  CPU 0.44 s  wall 0.45 s
 ------------------------------------------------------------------------------
                     drvman        : Timing summary (seconds)
 ------------------------------------------------------------------------------
     job step          cpu (% of tot)      sys (% of tot)     wall (% of tot)
 ------------------------------------------------------------------------------
 ------------------------------------------------------------------------------
   Grand Totals     0.4400E+00          0.2000E-05          0.4451E+00
 ------------------------------------------------------------------------------
drvman_main.C: 77: out of DrvMan  Time for this dynamics step: 2.6 s (CPU) 2.6 s (wall)

TIME STEP #4 (t = 60.000 a.u. = 1.45133 fs)
--------------------------------------
 Instantaneous Temperature = 2444.8 K
 ----------------------------------------------------------------
             Standard Nuclear Orientation (Angstroms)
    I     Atom           X                Y                Z
 ----------------------------------------------------------------
    1      C       4.6007412317     0.2979500180     0.3229272748
    2      C       3.6260224155     0.9530737212    -0.1283485821
    3      H       5.3845025137    -0.5766522884     0.6879960877
    4      H       5.4128484959     1.0381450697     0.3526018573
    5      C       2.6829052206    -0.0499489571     0.0758519597
    6      C       1.2636593695     0.4535006407    -0.4227147381
    7      H       0.4808855197    -0.3263515885    -0.3032203028
    8      H       0.6854353038     1.2528120348    -0.9548103115
    9      H       3.4696220470     1.9354006171    -0.5590585332
   10      H       2.5075280541    -1.1127335188     0.4554317404
 ----------------------------------------------------------------
 Nuclear Repulsion Energy =   104.2994068355 hartrees
 There are       15 alpha and       15 beta electrons

                       Distance Matrix (Angstroms)
             C (  1)   C (  2)   H (  3)   H (  4)   C (  5)   C (  6)
   C (  2)  1.258139
   H (  3)  1.229832  2.469561
   H (  4)  1.099221  1.852376  1.649504
   C (  5)  1.964733  1.391841  2.819710  2.951801
   C (  6)  3.422907  2.432485  4.390472  4.261302  1.586282
   H (  7)  4.213671  3.399911  5.009054  5.159090  2.251441  1.111388
   H (  8)  4.227765  3.069191  5.303488  4.909567  2.597949  1.120878
   H (  9)  2.176827  1.083946  3.395927  2.326440  2.227925  2.660994
   H ( 10)  2.527672  2.420617  2.935720  3.616316  1.142081  2.184363
             H (  7)   H (  8)   H (  9)
   H (  8)  1.720514
   H (  9)  3.756797  2.893828
   H ( 10)  2.302440  3.302213  3.353496

 Applying Cartesian multipole field
    Component          Value
    ---------          -----
     (2,0,0)        1.00000E-12
     (0,2,0)        2.00000E-11
     (0,0,2)       -3.00000E-10
 Nucleus-field energy     =    -0.0000000019 hartrees
 ENuRep (before)= 104.2994068355
 ENucField = -0.0000000019
 ENuRep (after) = 104.2994068335
 Job number = 2, Threshold = 1.00E-11
Integral type ranges set in mkLRange.C for JobNum: 2  <1-6|1-6>
Symmetry turned off temporarily
Symmetry turned back on
 Job number = 11, Threshold = 1.00E-11
Integral type ranges set in mkLRange.C for JobNum: 11  <1-6|7-7>
 Smallest overlap matrix eigenvalue = 1.46E-01
 Multipole matrices computed through 2nd order
 Guess from superposition of atomic densities
 Warning:  Energy on first SCF cycle will be non-variational
 SAD guess density has 30.000000 electrons
 SCF convergence criterion is 10**(-8)
 A restricted Hartree-Fock SCF calculation will be
 performed using Pulay DIIS extrapolation
 SCF converges when DIIS error is below 1.0E-08
Finding J and K together
 Job number = 22, Threshold = 1.00E-11
Integral type ranges set in mkLRange.C for JobNum: 22  <1-6|1-6>
 MakeJK  time:  CPU       0.13 s  wall       0.13 s
Fock build time:  0.13 s (CPU) 0.13 s (wall)
DIIS Errors:  Max 1.31E+00 RMS 2.11E-01

Current DIIS subspace size = 1
REM_GRID_RESTART_DIIS = 0

 ---------------------------------------
  Cycle       Energy         DIIS Error
 ---------------------------------------
    1    -152.4134805048      2.11E-01  00000
Finding J and K together
 Job number = 22, Threshold = 1.00E-11
Integral type ranges set in mkLRange.C for JobNum: 22  <1-6|1-6>
 MakeJK  time:  CPU       0.17 s  wall       0.17 s
Fock build time:  0.17 s (CPU) 0.17 s (wall)
DIIS Errors:  Max 1.11E-01 RMS 1.73E-02

Current DIIS subspace size = 2
REM_GRID_RESTART_DIIS = 0

    2    -152.6762105772      1.73E-02  00000
Finding J and K together
 Job number = 22, Threshold = 1.00E-11
Integral type ranges set in mkLRange.C for JobNum: 22  <1-6|1-6>
 MakeJK  time:  CPU       0.17 s  wall       0.17 s
Fock build time:  0.17 s (CPU) 0.17 s (wall)
DIIS Errors:  Max 7.56E-02 RMS 1.13E-02

Current DIIS subspace size = 3
REM_GRID_RESTART_DIIS = 0

    3    -152.7107038939      1.13E-02  00000
Finding J and K together
 Job number = 22, Threshold = 1.00E-11
Integral type ranges set in mkLRange.C for JobNum: 22  <1-6|1-6>
 MakeJK  time:  CPU       0.17 s  wall       0.17 s
Fock build time:  0.17 s (CPU) 0.17 s (wall)
DIIS Errors:  Max 2.18E-02 RMS 3.23E-03

Current DIIS subspace size = 4
REM_GRID_RESTART_DIIS = 0

    4    -152.7231744710      3.23E-03  00000
Finding J and K together
 Job number = 22, Threshold = 1.00E-11
Integral type ranges set in mkLRange.C for JobNum: 22  <1-6|1-6>
 MakeJK  time:  CPU       0.17 s  wall       0.18 s
Fock build time:  0.17 s (CPU) 0.18 s (wall)
DIIS Errors:  Max 3.38E-03 RMS 6.67E-04

Current DIIS subspace size = 5
REM_GRID_RESTART_DIIS = 0

    5    -152.7247511978      6.67E-04  00000
Finding J and K together
 Job number = 22, Threshold = 1.00E-11
Integral type ranges set in mkLRange.C for JobNum: 22  <1-6|1-6>
 MakeJK  time:  CPU       0.14 s  wall       0.14 s
Fock build time:  0.14 s (CPU) 0.14 s (wall)
DIIS Errors:  Max 1.97E-03 RMS 2.16E-04

Current DIIS subspace size = 6
REM_GRID_RESTART_DIIS = 0

    6    -152.7248086568      2.16E-04  00000
Finding J and K together
 Job number = 22, Threshold = 1.00E-11
Integral type ranges set in mkLRange.C for JobNum: 22  <1-6|1-6>
 MakeJK  time:  CPU       0.11 s  wall       0.11 s
Fock build time:  0.11 s (CPU) 0.11 s (wall)
DIIS Errors:  Max 1.07E-03 RMS 1.16E-04

Current DIIS subspace size = 7
REM_GRID_RESTART_DIIS = 0

    7    -152.7248213897      1.16E-04  00000
Finding J and K together
 Job number = 22, Threshold = 1.00E-11
Integral type ranges set in mkLRange.C for JobNum: 22  <1-6|1-6>
 MakeJK  time:  CPU       0.12 s  wall       0.12 s
Fock build time:  0.12 s (CPU) 0.12 s (wall)
DIIS Errors:  Max 4.86E-04 RMS 4.99E-05

Current DIIS subspace size = 8
REM_GRID_RESTART_DIIS = 0

    8    -152.7248249863      4.99E-05  00000
Finding J and K together
 Job number = 22, Threshold = 1.00E-11
Integral type ranges set in mkLRange.C for JobNum: 22  <1-6|1-6>
 MakeJK  time:  CPU       0.12 s  wall       0.12 s
Fock build time:  0.12 s (CPU) 0.12 s (wall)
DIIS Errors:  Max 6.14E-05 RMS 7.93E-06

Current DIIS subspace size = 9
REM_GRID_RESTART_DIIS = 0

    9    -152.7248258582      7.93E-06  00000
Finding J and K together
 Job number = 22, Threshold = 1.00E-11
Integral type ranges set in mkLRange.C for JobNum: 22  <1-6|1-6>
 MakeJK  time:  CPU       0.14 s  wall       0.14 s
Fock build time:  0.14 s (CPU) 0.14 s (wall)
DIIS Errors:  Max 8.62E-06 RMS 1.51E-06

Current DIIS subspace size = 10
REM_GRID_RESTART_DIIS = 0

   10    -152.7248258875      1.51E-06  00000
Finding J and K together
 Job number = 22, Threshold = 1.00E-11
Integral type ranges set in mkLRange.C for JobNum: 22  <1-6|1-6>
 MakeJK  time:  CPU       0.12 s  wall       0.12 s
Fock build time:  0.12 s (CPU) 0.12 s (wall)
DIIS Errors:  Max 2.14E-06 RMS 3.21E-07

Current DIIS subspace size = 11
REM_GRID_RESTART_DIIS = 0

   11    -152.7248258881      3.21E-07  00000
Finding J and K together
 Job number = 22, Threshold = 1.00E-11
Integral type ranges set in mkLRange.C for JobNum: 22  <1-6|1-6>
 MakeJK  time:  CPU       0.12 s  wall       0.12 s
Fock build time:  0.12 s (CPU) 0.12 s (wall)
DIIS Errors:  Max 1.14E-06 RMS 1.25E-07

Current DIIS subspace size = 12
REM_GRID_RESTART_DIIS = 0

   12    -152.7248258881      1.25E-07  00000
Finding J and K together
 Job number = 22, Threshold = 1.00E-11
Integral type ranges set in mkLRange.C for JobNum: 22  <1-6|1-6>
 MakeJK  time:  CPU       0.10 s  wall       0.10 s
Fock build time:  0.10 s (CPU) 0.10 s (wall)
DIIS Errors:  Max 3.45E-07 RMS 3.88E-08

Current DIIS subspace size = 13
REM_GRID_RESTART_DIIS = 0

   13    -152.7248258882      3.88E-08  00000
Finding J and K together
 Job number = 22, Threshold = 1.00E-11
Integral type ranges set in mkLRange.C for JobNum: 22  <1-6|1-6>
 MakeJK  time:  CPU       0.10 s  wall       0.10 s
Fock build time:  0.10 s (CPU) 0.10 s (wall)
DIIS Errors:  Max 8.83E-08 RMS 1.19E-08

Current DIIS subspace size = 14
REM_GRID_RESTART_DIIS = 0

   14    -152.7248258882      1.19E-08  00000
Finding J and K together
 Job number = 22, Threshold = 1.00E-11
Integral type ranges set in mkLRange.C for JobNum: 22  <1-6|1-6>
 MakeJK  time:  CPU       0.12 s  wall       0.12 s
Fock build time:  0.12 s (CPU) 0.12 s (wall)
DIIS Errors:  Max 1.52E-08 RMS 2.52E-09

Current DIIS subspace size = 15
REM_GRID_RESTART_DIIS = 0

   15    -152.7248258882      2.52E-09  00000 Convergence criterion met
 ---------------------------------------
 SCF time:  CPU 2.04 s  wall 2.07 s
 SCF   energy in the final basis set = -152.72482589
 Total energy in the final basis set = -152.72482589
drvman_main.C: 73: calling DrvMan  Calculating analytic gradient of the SCF energy
drvman.C : 218: Calculating analytic gradient of the SCF energy
drvman.C: 244: calling SCF_Grad for normal SCF gradient
 Job number = 111, Threshold = 1.00E-11
Integral type ranges set in mkLRange.C for JobNum: 11  <1-6|7-7>
Finding J and K together
 ML is being used
 Job number = 122, Threshold = 1.00E-11
Integral type ranges set in mkLRange.C for JobNum: 22  <1-6|1-6>
 MakeJK  time:  CPU       0.38 s  wall       0.40 s
 Gradient of SCF Energy
            1           2           3           4           5           6
    1  -0.3408663   0.0459423   0.1145462  -0.0202184   0.4081867  -0.0918108
    2  -0.0471302   0.0633341  -0.0254173   0.0007599  -0.0593562   0.1235555
    3  -0.0598529  -0.0050046   0.0241772   0.0025423   0.1192241  -0.0561254
            7           8           9          10
    1  -0.0146137  -0.0523866  -0.0062946  -0.0424848
    2  -0.0067311  -0.0062908   0.0053139  -0.0480377
    3  -0.0053076  -0.0153412  -0.0118422   0.0075304
 Max gradient component =       4.082E-01
 RMS gradient           =       1.098E-01
drvman.C: 248: out of SCF_Grad for normal SCF gradient
 Gradient time:  CPU 0.39 s  wall 0.42 s
 ------------------------------------------------------------------------------
                     drvman        : Timing summary (seconds)
 ------------------------------------------------------------------------------
     job step          cpu (% of tot)      sys (% of tot)     wall (% of tot)
 ------------------------------------------------------------------------------
 ------------------------------------------------------------------------------
   Grand Totals     0.3920E+00          0.1000E-05          0.4179E+00
 ------------------------------------------------------------------------------
drvman_main.C: 77: out of DrvMan  Time for this dynamics step: 2.5 s (CPU) 2.5 s (wall)

TIME STEP #5 (t = 80.000 a.u. = 1.93511 fs)
--------------------------------------
 Instantaneous Temperature = 3524.6 K
 ----------------------------------------------------------------
             Standard Nuclear Orientation (Angstroms)
    I     Atom           X                Y                Z
 ----------------------------------------------------------------
    1      C       4.6167021590     0.3033495240     0.3233034751
    2      C       3.6226964611     0.9536597595    -0.1287335646
    3      H       5.3238090709    -0.5478064059     0.6580881786
    4      H       5.4062990405     1.0092491641     0.3535837748
    5      C       2.6622867241    -0.0479319431     0.0701335564
    6      C       1.2744660902     0.4425903870    -0.4136357625
    7      H       0.4850205562    -0.3356623443    -0.3026523024
    8      H       0.6867960944     1.2652963080    -0.9671645746
    9      H       3.4749327769     1.9150460937    -0.5421019634
   10      H       2.5303492371    -1.0608812303     0.4392784302
 ----------------------------------------------------------------
 Nuclear Repulsion Energy =   104.8313274443 hartrees
 There are       15 alpha and       15 beta electrons

                       Distance Matrix (Angstroms)
             C (  1)   C (  2)   H (  3)   H (  4)   C (  5)   C (  6)
   C (  2)  1.270940
   H (  3)  1.156091  2.401515
   H (  4)  1.059563  1.848502  1.588694
   C (  5)  2.001808  1.401828  2.771149  2.954248
   C (  6)  3.425348  2.420030  4.304260  4.240492  1.549416
   H (  7)  4.227405  3.396706  4.937803  5.143774  2.227610  1.114100
   H (  8)  4.246741  3.069136  5.237430  4.907509  2.589038  1.152647
   H (  9)  2.156416  1.056869  3.305214  2.313633  2.210997  2.650789
   H ( 10)  2.495485  2.360982  2.848603  3.544555  1.086159  2.136617
             H (  7)   H (  8)   H (  9)
   H (  8)  1.745096
   H (  9)  3.750013  2.894229
   H ( 10)  2.293420  3.284490  3.272841

 Applying Cartesian multipole field
    Component          Value
    ---------          -----
     (2,0,0)        1.00000E-12
     (0,2,0)        2.00000E-11
     (0,0,2)       -3.00000E-10
 Nucleus-field energy     =    -0.0000000019 hartrees
 ENuRep (before)= 104.8313274443
 ENucField = -0.0000000019
 ENuRep (after) = 104.8313274424
 Job number = 2, Threshold = 1.00E-11
Integral type ranges set in mkLRange.C for JobNum: 2  <1-6|1-6>
Symmetry turned off temporarily
Symmetry turned back on
 Job number = 11, Threshold = 1.00E-11
Integral type ranges set in mkLRange.C for JobNum: 11  <1-6|7-7>
 Smallest overlap matrix eigenvalue = 1.50E-01
 Multipole matrices computed through 2nd order
 Guess from superposition of atomic densities
 Warning:  Energy on first SCF cycle will be non-variational
 SAD guess density has 30.000000 electrons
 SCF convergence criterion is 10**(-8)
 A restricted Hartree-Fock SCF calculation will be
 performed using Pulay DIIS extrapolation
 SCF converges when DIIS error is below 1.0E-08
Finding J and K together
 Job number = 22, Threshold = 1.00E-11
Integral type ranges set in mkLRange.C for JobNum: 22  <1-6|1-6>
 MakeJK  time:  CPU       0.08 s  wall       0.08 s
Fock build time:  0.08 s (CPU) 0.08 s (wall)
DIIS Errors:  Max 1.28E+00 RMS 2.14E-01

Current DIIS subspace size = 1
REM_GRID_RESTART_DIIS = 0

 ---------------------------------------
  Cycle       Energy         DIIS Error
 ---------------------------------------
    1    -152.5221280891      2.14E-01  00000
Finding J and K together
 Job number = 22, Threshold = 1.00E-11
Integral type ranges set in mkLRange.C for JobNum: 22  <1-6|1-6>
 MakeJK  time:  CPU       0.10 s  wall       0.10 s
Fock build time:  0.10 s (CPU) 0.10 s (wall)
DIIS Errors:  Max 9.84E-02 RMS 1.57E-02

Current DIIS subspace size = 2
REM_GRID_RESTART_DIIS = 0

    2    -152.7327085829      1.57E-02  00000
Finding J and K together
 Job number = 22, Threshold = 1.00E-11
Integral type ranges set in mkLRange.C for JobNum: 22  <1-6|1-6>
 MakeJK  time:  CPU       0.11 s  wall       0.11 s
Fock build time:  0.11 s (CPU) 0.11 s (wall)
DIIS Errors:  Max 5.29E-02 RMS 8.22E-03

Current DIIS subspace size = 3
REM_GRID_RESTART_DIIS = 0

    3    -152.7652582952      8.22E-03  00000
Finding J and K together
 Job number = 22, Threshold = 1.00E-11
Integral type ranges set in mkLRange.C for JobNum: 22  <1-6|1-6>
 MakeJK  time:  CPU       0.15 s  wall       0.15 s
Fock build time:  0.15 s (CPU) 0.15 s (wall)
DIIS Errors:  Max 2.27E-02 RMS 3.23E-03

Current DIIS subspace size = 4
REM_GRID_RESTART_DIIS = 0

    4    -152.7717066596      3.23E-03  00000
Finding J and K together
 Job number = 22, Threshold = 1.00E-11
Integral type ranges set in mkLRange.C for JobNum: 22  <1-6|1-6>
 MakeJK  time:  CPU       0.15 s  wall       0.15 s
Fock build time:  0.15 s (CPU) 0.15 s (wall)
DIIS Errors:  Max 2.95E-03 RMS 5.78E-04

Current DIIS subspace size = 5
REM_GRID_RESTART_DIIS = 0

    5    -152.7731159579      5.78E-04  00000
Finding J and K together
 Job number = 22, Threshold = 1.00E-11
Integral type ranges set in mkLRange.C for JobNum: 22  <1-6|1-6>
 MakeJK  time:  CPU       0.10 s  wall       0.10 s
Fock build time:  0.10 s (CPU) 0.11 s (wall)
DIIS Errors:  Max 1.20E-03 RMS 1.51E-04

Current DIIS subspace size = 6
REM_GRID_RESTART_DIIS = 0

    6    -152.7731561194      1.51E-04  00000
Finding J and K together
 Job number = 22, Threshold = 1.00E-11
Integral type ranges set in mkLRange.C for JobNum: 22  <1-6|1-6>
 MakeJK  time:  CPU       0.10 s  wall       0.10 s
Fock build time:  0.10 s (CPU) 0.10 s (wall)
DIIS Errors:  Max 6.11E-04 RMS 6.97E-05

Current DIIS subspace size = 7
REM_GRID_RESTART_DIIS = 0

    7    -152.7731627742      6.97E-05  00000
Finding J and K together
 Job number = 22, Threshold = 1.00E-11
Integral type ranges set in mkLRange.C for JobNum: 22  <1-6|1-6>
 MakeJK  time:  CPU       0.14 s  wall       0.14 s
Fock build time:  0.14 s (CPU) 0.14 s (wall)
DIIS Errors:  Max 2.94E-04 RMS 3.08E-05

Current DIIS subspace size = 8
REM_GRID_RESTART_DIIS = 0

    8    -152.7731639254      3.08E-05  00000
Finding J and K together
 Job number = 22, Threshold = 1.00E-11
Integral type ranges set in mkLRange.C for JobNum: 22  <1-6|1-6>
 MakeJK  time:  CPU       0.13 s  wall       0.13 s
Fock build time:  0.13 s (CPU) 0.13 s (wall)
DIIS Errors:  Max 5.40E-05 RMS 6.30E-06

Current DIIS subspace size = 9
REM_GRID_RESTART_DIIS = 0

    9    -152.7731642300      6.30E-06  00000
Finding J and K together
 Job number = 22, Threshold = 1.00E-11
Integral type ranges set in mkLRange.C for JobNum: 22  <1-6|1-6>
 MakeJK  time:  CPU       0.12 s  wall       0.13 s
Fock build time:  0.12 s (CPU) 0.13 s (wall)
DIIS Errors:  Max 7.01E-06 RMS 1.11E-06

Current DIIS subspace size = 10
REM_GRID_RESTART_DIIS = 0

   10    -152.7731642461      1.11E-06  00000
Finding J and K together
 Job number = 22, Threshold = 1.00E-11
Integral type ranges set in mkLRange.C for JobNum: 22  <1-6|1-6>
 MakeJK  time:  CPU       0.11 s  wall       0.11 s
Fock build time:  0.12 s (CPU) 0.11 s (wall)
DIIS Errors:  Max 1.44E-06 RMS 1.99E-07

Current DIIS subspace size = 11
REM_GRID_RESTART_DIIS = 0

   11    -152.7731642464      1.99E-07  00000
Finding J and K together
 Job number = 22, Threshold = 1.00E-11
Integral type ranges set in mkLRange.C for JobNum: 22  <1-6|1-6>
 MakeJK  time:  CPU       0.13 s  wall       0.13 s
Fock build time:  0.13 s (CPU) 0.13 s (wall)
DIIS Errors:  Max 4.86E-07 RMS 6.20E-08

Current DIIS subspace size = 12
REM_GRID_RESTART_DIIS = 0

   12    -152.7731642464      6.20E-08  00000
Finding J and K together
 Job number = 22, Threshold = 1.00E-11
Integral type ranges set in mkLRange.C for JobNum: 22  <1-6|1-6>
 MakeJK  time:  CPU       0.17 s  wall       0.17 s
Fock build time:  0.17 s (CPU) 0.17 s (wall)
DIIS Errors:  Max 1.68E-07 RMS 1.88E-08

Current DIIS subspace size = 13
REM_GRID_RESTART_DIIS = 0

   13    -152.7731642464      1.88E-08  00000
Finding J and K together
 Job number = 22, Threshold = 1.00E-11
Integral type ranges set in mkLRange.C for JobNum: 22  <1-6|1-6>
 MakeJK  time:  CPU       0.17 s  wall       0.17 s
Fock build time:  0.17 s (CPU) 0.17 s (wall)
DIIS Errors:  Max 4.26E-08 RMS 5.73E-09

Current DIIS subspace size = 14
REM_GRID_RESTART_DIIS = 0

   14    -152.7731642464      5.73E-09  00000 Convergence criterion met
 ---------------------------------------
 SCF time:  CPU 1.80 s  wall 1.81 s
 SCF   energy in the final basis set = -152.77316425
 Total energy in the final basis set = -152.77316425
drvman_main.C: 73: calling DrvMan  Calculating analytic gradient of the SCF energy
drvman.C : 218: Calculating analytic gradient of the SCF energy
drvman.C: 244: calling SCF_Grad for normal SCF gradient
 Job number = 111, Threshold = 1.00E-11
Integral type ranges set in mkLRange.C for JobNum: 11  <1-6|7-7>
Finding J and K together
 ML is being used
 Job number = 122, Threshold = 1.00E-11
Integral type ranges set in mkLRange.C for JobNum: 22  <1-6|1-6>
 MakeJK  time:  CPU       0.43 s  wall       0.45 s
 Gradient of SCF Energy
            1           2           3           4           5           6
    1  -0.2607988   0.0246606   0.0933634  -0.0428011   0.3712299  -0.0697775
    2  -0.0574392   0.1032512   0.0006650  -0.0241252  -0.1025178   0.1047408
    3  -0.0365129  -0.0261295   0.0124732   0.0028092   0.1281446  -0.0406374
            7           8           9          10
    1  -0.0161883  -0.0628428  -0.0022714  -0.0345739
    2  -0.0084328   0.0109130  -0.0188967  -0.0081583
    3  -0.0054969  -0.0267603  -0.0013600  -0.0065302
 Max gradient component =       3.712E-01
 RMS gradient           =       9.746E-02
drvman.C: 248: out of SCF_Grad for normal SCF gradient
 Gradient time:  CPU 0.45 s  wall 0.47 s
 ------------------------------------------------------------------------------
                     drvman        : Timing summary (seconds)
 ------------------------------------------------------------------------------
     job step          cpu (% of tot)      sys (% of tot)     wall (% of tot)
 ------------------------------------------------------------------------------
 ------------------------------------------------------------------------------
   Grand Totals     0.4520E+00          0.1000E-05          0.4706E+00
 ------------------------------------------------------------------------------
drvman_main.C: 77: out of DrvMan  Time for this dynamics step: 2.3 s (CPU) 2.3 s (wall)

TIME STEP #6 (t = 100.000 a.u. = 2.41888 fs)
--------------------------------------
 Instantaneous Temperature = 4530.0 K
 ----------------------------------------------------------------
             Standard Nuclear Orientation (Angstroms)
    I     Atom           X                Y                Z
 ----------------------------------------------------------------
    1      C       4.6351867148     0.3093048425     0.3240329937
    2      C       3.6191318780     0.9532466839    -0.1288657043
    3      H       5.2523586491    -0.5190371395     0.6267431514
    4      H       5.4046809644     0.9831328698     0.3542420277
    5      C       2.6380760096    -0.0449229122     0.0631751574
    6      C       1.2859480151     0.4306666054    -0.4041635582
    7      H       0.4910207504    -0.3440015036    -0.3014509738
    8      H       0.6953973930     1.2765232248    -0.9764356218
    9      H       3.4805052095     1.8968687787    -0.5249887027
   10      H       2.5571538952    -1.0080889697     0.4238775084
 ----------------------------------------------------------------
 Nuclear Repulsion Energy =   105.4591284586 hartrees
 There are       15 alpha and       15 beta electrons

                       Distance Matrix (Angstroms)
             C (  1)   C (  2)   H (  3)   H (  4)   C (  5)   C (  6)
   C (  2)  1.285358
   H (  3)  1.076422  2.325079
   H (  4)  1.023268  1.849992  1.534266
   C (  5)  2.044988  1.412690  2.716039  2.965758
   C (  6)  3.429635  2.406787  4.206794  4.224258  1.507594
   H (  7)  4.241716  3.390828  4.854124  5.131791  2.198237  1.114706
   H (  8)  4.260126  3.061226  5.153651  4.902462  2.569243  1.179711
   H (  9)  2.138805  1.032741  3.209759  2.304433  2.196857  2.642050
   H ( 10)  2.462461  2.297860  2.746717  3.475374  1.031670  2.090845
             H (  7)   H (  8)   H (  9)
   H (  8)  1.767335
   H (  9)  3.742791  2.888851
   H ( 10)  2.288235  3.262892  3.192445

 Applying Cartesian multipole field
    Component          Value
    ---------          -----
     (2,0,0)        1.00000E-12
     (0,2,0)        2.00000E-11
     (0,0,2)       -3.00000E-10
 Nucleus-field energy     =    -0.0000000018 hartrees
 ENuRep (before)= 105.4591284586
 ENucField = -0.0000000018
 ENuRep (after) = 105.4591284568
 Job number = 2, Threshold = 1.00E-11
Integral type ranges set in mkLRange.C for JobNum: 2  <1-6|1-6>
Symmetry turned off temporarily
Symmetry turned back on
 Job number = 11, Threshold = 1.00E-11
Integral type ranges set in mkLRange.C for JobNum: 11  <1-6|7-7>
 Smallest overlap matrix eigenvalue = 1.55E-01
 Multipole matrices computed through 2nd order
 Guess from superposition of atomic densities
 Warning:  Energy on first SCF cycle will be non-variational
 SAD guess density has 30.000000 electrons
 SCF convergence criterion is 10**(-8)
 A restricted Hartree-Fock SCF calculation will be
 performed using Pulay DIIS extrapolation
 SCF converges when DIIS error is below 1.0E-08
Finding J and K together
 Job number = 22, Threshold = 1.00E-11
Integral type ranges set in mkLRange.C for JobNum: 22  <1-6|1-6>
 MakeJK  time:  CPU       0.09 s  wall       0.09 s
Fock build time:  0.09 s (CPU) 0.09 s (wall)
DIIS Errors:  Max 1.24E+00 RMS 2.18E-01

Current DIIS subspace size = 1
REM_GRID_RESTART_DIIS = 0

 ---------------------------------------
  Cycle       Energy         DIIS Error
 ---------------------------------------
    1    -152.6539978587      2.18E-01  00000
Finding J and K together
 Job number = 22, Threshold = 1.00E-11
Integral type ranges set in mkLRange.C for JobNum: 22  <1-6|1-6>
 MakeJK  time:  CPU       0.17 s  wall       0.17 s
Fock build time:  0.17 s (CPU) 0.17 s (wall)
DIIS Errors:  Max 8.62E-02 RMS 1.46E-02

Current DIIS subspace size = 2
REM_GRID_RESTART_DIIS = 0

    2    -152.7754673453      1.46E-02  00000
Finding J and K together
 Job number = 22, Threshold = 1.00E-11
Integral type ranges set in mkLRange.C for JobNum: 22  <1-6|1-6>
 MakeJK  time:  CPU       0.15 s  wall       0.15 s
Fock build time:  0.15 s (CPU) 0.15 s (wall)
DIIS Errors:  Max 3.37E-02 RMS 5.89E-03

Current DIIS subspace size = 3
REM_GRID_RESTART_DIIS = 0

    3    -152.8056830430      5.89E-03  00000
Finding J and K together
 Job number = 22, Threshold = 1.00E-11
Integral type ranges set in mkLRange.C for JobNum: 22  <1-6|1-6>
 MakeJK  time:  CPU       0.14 s  wall       0.13 s
Fock build time:  0.14 s (CPU) 0.13 s (wall)
DIIS Errors:  Max 2.05E-02 RMS 2.85E-03

Current DIIS subspace size = 4
REM_GRID_RESTART_DIIS = 0

    4    -152.8090887552      2.85E-03  00000
Finding J and K together
 Job number = 22, Threshold = 1.00E-11
Integral type ranges set in mkLRange.C for JobNum: 22  <1-6|1-6>
 MakeJK  time:  CPU       0.15 s  wall       0.15 s
Fock build time:  0.15 s (CPU) 0.15 s (wall)
DIIS Errors:  Max 2.46E-03 RMS 4.84E-04

Current DIIS subspace size = 5
REM_GRID_RESTART_DIIS = 0

    5    -152.8100983647      4.84E-04  00000
Finding J and K together
 Job number = 22, Threshold = 1.00E-11
[...]
   H (  4)  1.192219  1.978742  2.171251
   C (  5)  2.574499  1.623653  2.308232  3.499808
   C (  6)  3.795326  2.746002  3.588780  4.625025  1.340298
   H (  7)  4.665191  3.786430  4.291134  5.598766  2.243511  1.162369
   H (  8)  4.232934  3.019546  4.235801  4.857928  2.024767  1.006816
   H (  9)  2.164229  1.182046  2.843242  2.150260  2.395567  3.109774
   H ( 10)  2.920047  2.461136  2.267202  4.041494  1.165894  1.878522
             H (  7)   H (  8)   H (  9)
   H (  8)  1.823349
   H (  9)  4.234948  3.001552
   H ( 10)  2.195496  2.830732  3.422474

 Applying Cartesian multipole field
    Component          Value
    ---------          -----
     (2,0,0)        1.00000E-12
     (0,2,0)        2.00000E-11
     (0,0,2)       -3.00000E-10
 Nucleus-field energy     =    -0.0000000058 hartrees
 ENuRep (before)= 100.2395058003
 ENucField = -0.0000000058
 ENuRep (after) = 100.2395057945
 Job number = 2, Threshold = 1.00E-11
Integral type ranges set in mkLRange.C for JobNum: 2  <1-6|1-6>
Symmetry turned off temporarily
Symmetry turned back on
 Job number = 11, Threshold = 1.00E-11
Integral type ranges set in mkLRange.C for JobNum: 11  <1-6|7-7>
 Smallest overlap matrix eigenvalue = 1.89E-01
 Multipole matrices computed through 2nd order
 Extrapolating the Fock matrix using 12 points and a 6th-order polynomial
 Alpha Fock matrix extrapolation
 Skip SCF guess (diagonalize extrapolated Fock matrix instead)
 SCF convergence criterion is 10**(-8)
 A restricted Hartree-Fock SCF calculation will be
 performed using Pulay DIIS extrapolation
 SCF converges when DIIS error is below 1.0E-08
Extrapolated Fock matrix used in lieu of Fock build
Fock build time:  0.00 s (CPU) 0.00 s (wall)
DIIS Errors:  Max 4.57E-01 RMS 3.50E-02

Current DIIS subspace size = 1
REM_GRID_RESTART_DIIS = 0

 ---------------------------------------
  Cycle       Energy         DIIS Error
 ---------------------------------------
    1    -304.4512426112      3.50E-02  00000
Finding J and K together
 Job number = 22, Threshold = 1.00E-11
Integral type ranges set in mkLRange.C for JobNum: 22  <1-6|1-6>
 MakeJK  time:  CPU       0.18 s  wall       0.19 s
Fock build time:  0.18 s (CPU) 0.19 s (wall)
DIIS Errors:  Max 3.07E-01 RMS 2.87E-02

Current DIIS subspace size = 2
REM_GRID_RESTART_DIIS = 0

    2    -152.8320348662      2.87E-02  00000
Finding J and K together
 Job number = 22, Threshold = 1.00E-11
Integral type ranges set in mkLRange.C for JobNum: 22  <1-6|1-6>
 MakeJK  time:  CPU       0.19 s  wall       0.19 s
Fock build time:  0.19 s (CPU) 0.19 s (wall)
DIIS Errors:  Max 1.48E-01 RMS 1.37E-02

Current DIIS subspace size = 3
REM_GRID_RESTART_DIIS = 0

    3    -152.8429651772      1.37E-02  00000
Finding J and K together
 Job number = 22, Threshold = 1.00E-11
Integral type ranges set in mkLRange.C for JobNum: 22  <1-6|1-6>
 MakeJK  time:  CPU       0.20 s  wall       0.20 s
Fock build time:  0.20 s (CPU) 0.20 s (wall)
DIIS Errors:  Max 4.37E-03 RMS 4.57E-04

Current DIIS subspace size = 4
REM_GRID_RESTART_DIIS = 0

    4    -152.8463391137      4.57E-04  00000
Finding J and K together
 Job number = 22, Threshold = 1.00E-11
Integral type ranges set in mkLRange.C for JobNum: 22  <1-6|1-6>
 MakeJK  time:  CPU       0.20 s  wall       0.20 s
Fock build time:  0.20 s (CPU) 0.20 s (wall)
DIIS Errors:  Max 4.57E-04 RMS 7.15E-05

Current DIIS subspace size = 5
REM_GRID_RESTART_DIIS = 0

    5    -152.8463493882      7.15E-05  00000
Finding J and K together
 Job number = 22, Threshold = 1.00E-11
Integral type ranges set in mkLRange.C for JobNum: 22  <1-6|1-6>
 MakeJK  time:  CPU       0.12 s  wall       0.12 s
Fock build time:  0.12 s (CPU) 0.12 s (wall)
DIIS Errors:  Max 2.26E-04 RMS 2.94E-05

Current DIIS subspace size = 6
REM_GRID_RESTART_DIIS = 0

    6    -152.8463498538      2.94E-05  00000
Finding J and K together
 Job number = 22, Threshold = 1.00E-11
Integral type ranges set in mkLRange.C for JobNum: 22  <1-6|1-6>
 MakeJK  time:  CPU       0.15 s  wall       0.15 s
Fock build time:  0.15 s (CPU) 0.15 s (wall)
DIIS Errors:  Max 8.01E-05 RMS 9.85E-06

Current DIIS subspace size = 7
REM_GRID_RESTART_DIIS = 0

    7    -152.8463499571      9.85E-06  00000
Finding J and K together
 Job number = 22, Threshold = 1.00E-11
Integral type ranges set in mkLRange.C for JobNum: 22  <1-6|1-6>
 MakeJK  time:  CPU       0.16 s  wall       0.16 s
Fock build time:  0.16 s (CPU) 0.16 s (wall)
DIIS Errors:  Max 3.64E-05 RMS 4.00E-06

Current DIIS subspace size = 8
REM_GRID_RESTART_DIIS = 0

    8    -152.8463499801      4.00E-06  00000
Finding J and K together
 Job number = 22, Threshold = 1.00E-11
Integral type ranges set in mkLRange.C for JobNum: 22  <1-6|1-6>
 MakeJK  time:  CPU       0.20 s  wall       0.19 s
Fock build time:  0.20 s (CPU) 0.19 s (wall)
DIIS Errors:  Max 5.85E-06 RMS 7.96E-07

Current DIIS subspace size = 9
REM_GRID_RESTART_DIIS = 0

    9    -152.8463499820      7.96E-07  00000
Finding J and K together
 Job number = 22, Threshold = 1.00E-11
Integral type ranges set in mkLRange.C for JobNum: 22  <1-6|1-6>
 MakeJK  time:  CPU       0.18 s  wall       0.18 s
Fock build time:  0.18 s (CPU) 0.18 s (wall)
DIIS Errors:  Max 8.97E-07 RMS 1.60E-07

Current DIIS subspace size = 10
REM_GRID_RESTART_DIIS = 0

   10    -152.8463499821      1.60E-07  00000
Finding J and K together
 Job number = 22, Threshold = 1.00E-11
Integral type ranges set in mkLRange.C for JobNum: 22  <1-6|1-6>
 MakeJK  time:  CPU       0.11 s  wall       0.11 s
Fock build time:  0.11 s (CPU) 0.11 s (wall)
DIIS Errors:  Max 5.11E-07 RMS 7.89E-08

Current DIIS subspace size = 11
REM_GRID_RESTART_DIIS = 0

   11    -152.8463499821      7.89E-08  00000
Finding J and K together
 Job number = 22, Threshold = 1.00E-11
Integral type ranges set in mkLRange.C for JobNum: 22  <1-6|1-6>
 MakeJK  time:  CPU       0.11 s  wall       0.11 s
Fock build time:  0.11 s (CPU) 0.11 s (wall)
DIIS Errors:  Max 1.93E-07 RMS 2.35E-08

Current DIIS subspace size = 12
REM_GRID_RESTART_DIIS = 0

   12    -152.8463499821      2.35E-08  00000
Finding J and K together
 Job number = 22, Threshold = 1.00E-11
Integral type ranges set in mkLRange.C for JobNum: 22  <1-6|1-6>
 MakeJK  time:  CPU       0.18 s  wall       0.18 s
Fock build time:  0.18 s (CPU) 0.18 s (wall)
DIIS Errors:  Max 6.32E-08 RMS 7.98E-09

Current DIIS subspace size = 13
REM_GRID_RESTART_DIIS = 0

   13    -152.8463499821      7.98E-09  00000 Convergence criterion met
 ---------------------------------------
 SCF time:  CPU 2.00 s  wall 2.02 s
 SCF   energy in the final basis set = -152.84634998
 Total energy in the final basis set = -152.84634998
drvman_main.C: 73: calling DrvMan  Calculating analytic gradient of the SCF energy
drvman.C : 218: Calculating analytic gradient of the SCF energy
drvman.C: 244: calling SCF_Grad for normal SCF gradient
 Job number = 111, Threshold = 1.00E-11
Integral type ranges set in mkLRange.C for JobNum: 11  <1-6|7-7>
Finding J and K together
 ML is being used
 Job number = 122, Threshold = 1.00E-11
Integral type ranges set in mkLRange.C for JobNum: 22  <1-6|1-6>
 MakeJK  time:  CPU       0.48 s  wall       0.49 s
 Gradient of SCF Energy
            1           2           3           4           5           6
    1   0.1667047  -0.0183442  -0.0824871  -0.0342417  -0.0335766  -0.0314731
    2  -0.1320955   0.0306411   0.0521594   0.0852430   0.0743494   0.0263861
    3  -0.0762862  -0.0948781   0.0647400   0.0423423  -0.0035684   0.0395489
            7           8           9          10
    1  -0.0138880   0.0520685   0.0065308  -0.0112934
    2  -0.0618947  -0.0415156   0.0407824  -0.0740555
    3   0.0186821  -0.0604135   0.0584707   0.0113625
 Max gradient component =       1.667E-01
 RMS gradient           =       6.286E-02
drvman.C: 248: out of SCF_Grad for normal SCF gradient
 Gradient time:  CPU 0.50 s  wall 0.51 s
 ------------------------------------------------------------------------------
                     drvman        : Timing summary (seconds)
 ------------------------------------------------------------------------------
     job step          cpu (% of tot)      sys (% of tot)     wall (% of tot)
 ------------------------------------------------------------------------------
 ------------------------------------------------------------------------------
   Grand Totals     0.5040E+00          0.2000E-05          0.5077E+00
 ------------------------------------------------------------------------------
drvman_main.C: 77: out of DrvMan  Time for this dynamics step: 2.5 s (CPU) 2.6 s (wall)

TIME STEP #400 (t = 7980.000 a.u. = 193.02697 fs)
--------------------------------------
 Instantaneous Temperature = 6068.4 K
 ----------------------------------------------------------------
             Standard Nuclear Orientation (Angstroms)
    I     Atom           X                Y                Z
 ----------------------------------------------------------------
    1      C       4.6530438979     1.2896903466    -0.5399018245
    2      C       3.2956388685     1.3017864543    -0.1972293898
    3      H       4.6272027222     0.4656147052    -1.1251646835
    4      H       4.9783402874     2.4482411564    -0.2484230155
    5      C       2.5307728423    -0.1544901305    -0.1592030612
    6      C       1.6745891397    -0.7336951809     0.6611961469
    7      H       1.4348397290    -1.9481859695     0.7702895243
    8      H       1.1267574513    -0.2159302700     1.3014109668
    9      H       3.0258064388     2.0704493095     0.6255047008
   10      H       2.9774793737    -1.1896196101    -0.6581529528
 ----------------------------------------------------------------
 Nuclear Repulsion Energy =    99.4084067554 hartrees
 There are       15 alpha and       15 beta electrons

                       Distance Matrix (Angstroms)
             C (  1)   C (  2)   H (  3)   H (  4)   C (  5)   C (  6)
   C (  2)  1.400043
   H (  3)  1.011089  1.825735
   H (  4)  1.238151  2.036778  2.196083
   C (  5)  2.595115  1.645359  2.390111  3.573899
   C (  6)  3.795776  2.740051  3.653403  4.676205  1.319691
   H (  7)  4.749451  3.867944  4.428359  5.737834  2.298341  1.242726
   H (  8)  4.253472  3.041946  4.313455  4.933000  2.026926  0.988977
   H (  9)  2.148408  1.157818  2.864404  2.172295  2.410639  3.112923
   H ( 10)  2.994742  2.553582  2.383168  4.171972  1.232879  1.909469
             H (  7)   H (  8)   H (  9)
   H (  8)  1.837856
   H (  9)  4.324531  3.048076
   H ( 10)  2.235086  2.865856  3.504021

 Applying Cartesian multipole field
    Component          Value
    ---------          -----
     (2,0,0)        1.00000E-12
     (0,2,0)        2.00000E-11
     (0,0,2)       -3.00000E-10
 Nucleus-field energy     =    -0.0000000059 hartrees
 ENuRep (before)= 99.4084067554
 ENucField = -0.0000000059
 ENuRep (after) = 99.4084067495
 Job number = 2, Threshold = 1.00E-11
Integral type ranges set in mkLRange.C for JobNum: 2  <1-6|1-6>
Symmetry turned off temporarily
Symmetry turned back on
 Job number = 11, Threshold = 1.00E-11
Integral type ranges set in mkLRange.C for JobNum: 11  <1-6|7-7>
 Smallest overlap matrix eigenvalue = 1.84E-01
 Multipole matrices computed through 2nd order
 Extrapolating the Fock matrix using 12 points and a 6th-order polynomial
 Alpha Fock matrix extrapolation
 Skip SCF guess (diagonalize extrapolated Fock matrix instead)
 SCF convergence criterion is 10**(-8)
 A restricted Hartree-Fock SCF calculation will be
 performed using Pulay DIIS extrapolation
 SCF converges when DIIS error is below 1.0E-08
Extrapolated Fock matrix used in lieu of Fock build
Fock build time:  0.00 s (CPU) 0.00 s (wall)
DIIS Errors:  Max 2.27E-01 RMS 1.94E-02

Current DIIS subspace size = 1
REM_GRID_RESTART_DIIS = 0

 ---------------------------------------
  Cycle       Energy         DIIS Error
 ---------------------------------------
    1    -303.6550821576      1.94E-02  00000
Finding J and K together
 Job number = 22, Threshold = 1.00E-11
Integral type ranges set in mkLRange.C for JobNum: 22  <1-6|1-6>
 MakeJK  time:  CPU       0.20 s  wall       0.19 s
Fock build time:  0.20 s (CPU) 0.19 s (wall)
DIIS Errors:  Max 1.24E-01 RMS 1.38E-02

Current DIIS subspace size = 2
REM_GRID_RESTART_DIIS = 0

    2    -152.8203682674      1.38E-02  00000
Finding J and K together
 Job number = 22, Threshold = 1.00E-11
Integral type ranges set in mkLRange.C for JobNum: 22  <1-6|1-6>
 MakeJK  time:  CPU       0.19 s  wall       0.19 s
Fock build time:  0.19 s (CPU) 0.19 s (wall)
DIIS Errors:  Max 5.33E-02 RMS 6.01E-03

Current DIIS subspace size = 3
REM_GRID_RESTART_DIIS = 0

    3    -152.8232274875      6.01E-03  00000
Finding J and K together
 Job number = 22, Threshold = 1.00E-11
Integral type ranges set in mkLRange.C for JobNum: 22  <1-6|1-6>
 MakeJK  time:  CPU       0.16 s  wall       0.16 s
Fock build time:  0.16 s (CPU) 0.16 s (wall)
DIIS Errors:  Max 1.25E-03 RMS 2.29E-04

Current DIIS subspace size = 4
REM_GRID_RESTART_DIIS = 0

    4    -152.8239987665      2.29E-04  00000
Finding J and K together
 Job number = 22, Threshold = 1.00E-11
Integral type ranges set in mkLRange.C for JobNum: 22  <1-6|1-6>
 MakeJK  time:  CPU       0.18 s  wall       0.21 s
Fock build time:  0.18 s (CPU) 0.21 s (wall)
DIIS Errors:  Max 8.50E-04 RMS 9.08E-05

Current DIIS subspace size = 5
REM_GRID_RESTART_DIIS = 0

    5    -152.8240060335      9.08E-05  00000
Finding J and K together
 Job number = 22, Threshold = 1.00E-11
Integral type ranges set in mkLRange.C for JobNum: 22  <1-6|1-6>
 MakeJK  time:  CPU       0.18 s  wall       0.19 s
Fock build time:  0.18 s (CPU) 0.19 s (wall)
DIIS Errors:  Max 1.38E-04 RMS 2.10E-05

Current DIIS subspace size = 6
REM_GRID_RESTART_DIIS = 0

    6    -152.8240076238      2.10E-05  00000
Finding J and K together
 Job number = 22, Threshold = 1.00E-11
Integral type ranges set in mkLRange.C for JobNum: 22  <1-6|1-6>
 MakeJK  time:  CPU       0.19 s  wall       0.20 s
Fock build time:  0.19 s (CPU) 0.20 s (wall)
DIIS Errors:  Max 9.13E-05 RMS 1.03E-05

Current DIIS subspace size = 7
REM_GRID_RESTART_DIIS = 0

    7    -152.8240077783      1.03E-05  00000
Finding J and K together
 Job number = 22, Threshold = 1.00E-11
Integral type ranges set in mkLRange.C for JobNum: 22  <1-6|1-6>
 MakeJK  time:  CPU       0.19 s  wall       0.19 s
Fock build time:  0.19 s (CPU) 0.19 s (wall)
DIIS Errors:  Max 2.47E-05 RMS 2.86E-06

Current DIIS subspace size = 8
REM_GRID_RESTART_DIIS = 0

    8    -152.8240077983      2.86E-06  00000
Finding J and K together
 Job number = 22, Threshold = 1.00E-11
Integral type ranges set in mkLRange.C for JobNum: 22  <1-6|1-6>
 MakeJK  time:  CPU       0.19 s  wall       0.19 s
Fock build time:  0.19 s (CPU) 0.19 s (wall)
DIIS Errors:  Max 1.06E-05 RMS 1.09E-06

Current DIIS subspace size = 9
REM_GRID_RESTART_DIIS = 0

    9    -152.8240078005      1.09E-06  00000
Finding J and K together
 Job number = 22, Threshold = 1.00E-11
Integral type ranges set in mkLRange.C for JobNum: 22  <1-6|1-6>
 MakeJK  time:  CPU       0.17 s  wall       0.18 s
Fock build time:  0.17 s (CPU) 0.18 s (wall)
DIIS Errors:  Max 1.95E-06 RMS 2.85E-07

Current DIIS subspace size = 10
REM_GRID_RESTART_DIIS = 0

   10    -152.8240078007      2.85E-07  00000
Finding J and K together
 Job number = 22, Threshold = 1.00E-11
Integral type ranges set in mkLRange.C for JobNum: 22  <1-6|1-6>
 MakeJK  time:  CPU       0.12 s  wall       0.12 s
Fock build time:  0.12 s (CPU) 0.12 s (wall)
DIIS Errors:  Max 4.12E-07 RMS 6.78E-08

Current DIIS subspace size = 11
REM_GRID_RESTART_DIIS = 0

   11    -152.8240078008      6.78E-08  00000
Finding J and K together
 Job number = 22, Threshold = 1.00E-11
Integral type ranges set in mkLRange.C for JobNum: 22  <1-6|1-6>
 MakeJK  time:  CPU       0.16 s  wall       0.16 s
Fock build time:  0.16 s (CPU) 0.16 s (wall)
DIIS Errors:  Max 1.18E-07 RMS 1.59E-08

Current DIIS subspace size = 12
REM_GRID_RESTART_DIIS = 0

   12    -152.8240078008      1.59E-08  00000
Finding J and K together
 Job number = 22, Threshold = 1.00E-11
Integral type ranges set in mkLRange.C for JobNum: 22  <1-6|1-6>
 MakeJK  time:  CPU       0.16 s  wall       0.16 s
Fock build time:  0.16 s (CPU) 0.16 s (wall)
DIIS Errors:  Max 2.44E-08 RMS 3.60E-09

Current DIIS subspace size = 13
REM_GRID_RESTART_DIIS = 0

   13    -152.8240078008      3.60E-09  00000 Convergence criterion met
 ---------------------------------------
 SCF time:  CPU 2.11 s  wall 2.19 s
 SCF   energy in the final basis set = -152.82400780
 Total energy in the final basis set = -152.82400780
drvman_main.C: 73: calling DrvMan  Calculating analytic gradient of the SCF energy
drvman.C : 218: Calculating analytic gradient of the SCF energy
drvman.C: 244: calling SCF_Grad for normal SCF gradient
 Job number = 111, Threshold = 1.00E-11
Integral type ranges set in mkLRange.C for JobNum: 11  <1-6|7-7>
Finding J and K together
 ML is being used
 Job number = 122, Threshold = 1.00E-11
Integral type ranges set in mkLRange.C for JobNum: 22  <1-6|1-6>
 MakeJK  time:  CPU       0.32 s  wall       0.32 s
 Gradient of SCF Energy
            1           2           3           4           5           6
    1   0.1678320  -0.0454558  -0.0755163  -0.0211761  -0.0609025  -0.0158897
    2  -0.1583324   0.0516843   0.0546163   0.1046880   0.0765407   0.0977945
    3  -0.0878531  -0.0724336   0.0644165   0.0447073   0.0267007   0.0347021
            7           8           9          10
    1  -0.0257855   0.0631051   0.0125464   0.0012424
    2  -0.0997293  -0.0582847   0.0335695  -0.1025469
    3   0.0219117  -0.0757966   0.0466555  -0.0030106
 Max gradient component =       1.678E-01
 RMS gradient           =       7.227E-02
drvman.C: 248: out of SCF_Grad for normal SCF gradient
 Gradient time:  CPU 0.33 s  wall 0.33 s
 ------------------------------------------------------------------------------
                     drvman        : Timing summary (seconds)
 ------------------------------------------------------------------------------
     job step          cpu (% of tot)      sys (% of tot)     wall (% of tot)
 ------------------------------------------------------------------------------
 ------------------------------------------------------------------------------
   Grand Totals     0.3320E+00          0.2000E-05          0.3291E+00
 ------------------------------------------------------------------------------
drvman_main.C: 77: out of DrvMan  Time for this dynamics step: 2.5 s (CPU) 2.6 s (wall)

=============== TIME STEPS COMPLETED ==================

Step-to-Step energy fluctuations, |E(n) - E(n-1)|
Mean: -5.708e-06   Max: 3.715e-03   RMS: 9.768e-04
Overall energy fluctuations, |E(n) - E(0)|
Mean: -1.762e-03   Max: 4.728e-03   RMS: 1.120e-03   RMS(dE)/RMS(dV): 1.897e-02
Kinetic energy fluctuations, |T(n) - V(0)|
Mean: 2.071e-01   Max: 3.868e-01   RMS: 5.830e-02
Potential energy fluctuations, |V(n) - V(0)|
Mean: -2.088e-01   Max: 3.912e-01   RMS: 5.905e-02


 JobOver = TRUE
Archival summary:
1\1\qciep03\JobtypUnspecified\HF\STO-3G\46\jcartus\MonJun1812:09:042018MonJun1812:09:042018\0\\#,JobtypUnspecified,HF,STO-3G,\\0,1\C\H,1,1.23288\C,1,1.31969,2,96.7859\H,3,0.988977,1,122.143,2,176.692,0\H,3,1.24273,1,127.493,2,-2.671,0\C,1,1.64536,2,124.425,3,160.315,0\H,6,1.15782,1,117.57,2,-155.959,0\C,6,1.40004,1,116.661,2,-15.2287,0\H,8,1.01109,6,97.1195,1,29.0144,0\H,8,1.23815,6,100.896,1,-168.535,0\\HF=-152.824008\\@

 Total job time:  933.97s(wall), 915.33s(cpu) 
 Mon Jun 18 12:09:04 2018

        *************************************************************
        *                                                           *
        *  Thank you very much for using Q-Chem.  Have a nice day.  *
        *                                                           *
        *************************************************************


*** MISSION COMPLETED -- STARFLEET OUT ***

0 sent ACK to 0 
now end server 0 ... 
