Process 0 of 1 is on qciep03 - thread support 0
initial socket setup ...start
initial socket setup ...done 
now start server 0 ... 
qciep03.tugraz.at 127.0.1
Q-Chem Developer Version! Running on 127.0.1.*
                  Welcome to Q-Chem
     A Quantum Leap Into The Future Of Chemistry


 Q-Chem 5.0, Q-Chem, Inc., Pleasanton, CA (2017)

 Yihan Shao,  Zhengting Gan,  E. Epifanovsky,  A. T. B. Gilbert,  M. Wormit,  
 J. Kussmann,  A. W. Lange,  A. Behn,  Jia Deng,  Xintian Feng,  D. Ghosh,  
 M. Goldey,  P. R. Horn,  L. D. Jacobson,  I. Kaliman,  T. Kus,  A. Landau,  
 Jie Liu,  E. I. Proynov,  R. M. Richard,  R. P. Steele,  E. J. Sundstrom,  
 H. L. Woodcock III,  P. M. Zimmerman,  D. Zuev,  B. Albrecht,  E. Alguire,  
 S. A. Baeppler,  D. Barton,  Z. Benda,  Y. A. Bernard,  E. J. Berquist,  
 K. B. Bravaya,  H. Burton,  D. Casanova,  Chun-Min Chang,  Yunqing Chen,  
 A. Chien,  K. D. Closser,  M. P. Coons,  S. Dasgupta,  A. L. Dempwolff,  
 M. Diedenhofen,  Hainam Do,  R. G. Edgar,  Po-Tung Fang,  S. Fatehi,  
 Qingguo Feng,  J. Fosso-Tande,  Qinghui Ge,  A. Ghysels,  G. Gidofalvi,  
 J. Gomes,  J. Gonthier,  A. Gunina,  M. W. D. Hanson-Heine,  
 P. H. P. Harbach,  A. W. Hauser,  J. E. Herr,  E. G. Hohenstein,  
 Z. C. Holden,  Kerwin Hui,  T.-C. Jagau,  Hyunjun Ji,  B. Kaduk,  
 K. Khistyaev,  Jaehoon Kim,  P. Klunzinger,  K. Koh,  D. Kosenkov,  
 L. Koulias,  T. Kowalczyk,  C. M. Krauter,  A. Kunitsa,  Ka Un Lao,  
 A. Laurent,  K. V. Lawler,  Joonho Lee,  D. Lefrancois,  S. Lehtola,  
 D. S. Levine,  Yi-Pei Li,  You-Sheng Lin,  Fenglai Liu,  E. Livshits,  
 A. Luenser,  P. Manohar,  E. Mansoor,  S. F. Manzer,  Shan-Ping Mao,  
 Yuezhi Mao,  N. Mardirossian,  A. V. Marenich,  T. Markovich,  
 L. A. Martinez-Martinez,  S. A. Maurer,  N. J. Mayhall,  S. C. McKenzie,  
 J.-M. Mewes,  A. F. Morrison,  J. W. Mullinax,  K. Nanda,  
 T. S. Nguyen-Beck,  R. Olivares-Amaya,  J. A. Parkhill,  T. M. Perrine,  
 F. Plasser,  S. Prager,  A. Prociuk,  E. Ramos,  D. R. Rehn,  F. Rob,  
 M. Schneider,  N. Sergueev,  S. M. Sharada,  S. Sharma,  D. W. Small,  
 T. Stauch,  T. Stein,  Yu-Chuan Su,  A. J. W. Thom,  A. Tkatchenko,  
 T. Tsuchimochi,  L. Vogt,  O. Vydrov,  M. A. Watson,  J. Wenzel,  
 M. de Wergifosse,  T. A. Wesolowski,  A. White,  J. Witte,  A. Yamada,  
 Jun Yang,  K. Yao,  S. Yeganeh,  S. R. Yost,  Zhi-Qiang You,  A. Zech,  
 Igor Ying Zhang,  Xing Zhang,  Yan Zhao,  Ying Zhu,  B. R. Brooks,  
 G. K. L. Chan,  C. J. Cramer,  M. S. Gordon,  W. J. Hehre,  A. Klamt,  
 M. W. Schmidt,  C. D. Sherrill,  D. G. Truhlar,  A. Aspuru-Guzik,  R. Baer,  
 A. T. Bell,  N. A. Besley,  Jeng-Da Chai,  R. A. DiStasio Jr.,  A. Dreuw,  
 B. D. Dunietz,  T. R. Furlani,  Chao-Ping Hsu,  Yousung Jung,  Jing Kong,  
 D. S. Lambrecht,  WanZhen Liang,  C. Ochsenfeld,  V. A. Rassolov,  
 L. V. Slipchenko,  J. E. Subotnik,  T. Van Voorhis,  J. M. Herbert,  
 A. I. Krylov,  P. M. W. Gill,  M. Head-Gordon

 Contributors to earlier versions of Q-Chem not listed above: 
 R. D. Adamson,  B. Austin,  J. Baker,  G. J. O. Beran,  K. Brandhorst,  
 S. T. Brown,  E. F. C. Byrd,  A. K. Chakraborty,  C.-L. Cheng,  
 Siu Hung Chien,  D. M. Chipman,  D. L. Crittenden,  H. Dachsel,  
 R. J. Doerksen,  A. D. Dutoi,  L. Fusti-Molnar,  W. A. Goddard III,  
 A. Golubeva-Zadorozhnaya,  S. R. Gwaltney,  G. Hawkins,  A. Heyden,  
 S. Hirata,  G. Kedziora,  F. J. Keil,  C. Kelley,  Jihan Kim,  R. A. King,  
 R. Z. Khaliullin,  P. P. Korambath,  W. Kurlancheek,  A. M. Lee,  M. S. Lee,  
 S. V. Levchenko,  Ching Yeh Lin,  D. Liotard,  R. C. Lochan,  I. Lotan,  
 P. E. Maslen,  N. Nair,  D. P. O'Neill,  D. Neuhauser,  E. Neuscamman,  
 C. M. Oana,  R. Olson,  B. Peters,  R. Peverati,  P. A. Pieniazek,  
 Y. M. Rhee,  J. Ritchie,  M. A. Rohrdanz,  E. Rosta,  N. J. Russ,  
 H. F. Schaefer III,  N. E. Schultz,  N. Shenvi,  A. C. Simmonett,  A. Sodt,  
 D. Stuck,  K. S. Thanthiriwatte,  V. Vanovschi,  Tao Wang,  A. Warshel,  
 C. F. Williams,  Q. Wu,  X. Xu,  W. Zhang

 Please cite Q-Chem as follows:
 Y. Shao et al., Mol. Phys. 113, 184-215 (2015)
 DOI: 10.1080/00268976.2014.952696

 Q-Chem 5.0.2 for Intel X86 EM64T Linux

 Parts of Q-Chem use Armadillo 5.200.1 (Boston Tea Smuggler).
 http://arma.sourceforge.net/

 Q-Chem begins on Mon Jun 18 12:47:17 2018  


Host: 0

     Scratch files written to /home/jcartus/scratch/Butadien_24.mol.dir//
 Using version located at /usr/local/qchem/bin/qchem

 Parallel job on  1  processors
Symmetry disabled for AIMD jobs.

Total Memory Limit in MB = 2000
Mega-Array Size in MB = 192

Checking the input file for inconsistencies... 	...done.
Finally everything over in PARseQInput

--------------------------------------------------------------
User input:
--------------------------------------------------------------
$rem
AIMD_STEPS                    400
FOCK_EXTRAP_POINTS            12
MAX_SCF_CYCLES                100
BASIS                         sto-3g
AIMD_INIT_VELOC               thermal
FOCK_EXTRAP_ORDER             6
AIMD_TEMP                     400
AIMD_METHOD                   bomd
TIME_STEP                     20
METHOD                        hf
JOBTYPE                       aimd
$end

$molecule
0 1
C    3.14070    -0.33008    0.23398
C    3.79376    -0.23156    -0.92903
H    3.43599    -1.01755    1.01837
H    2.27350    0.29344    0.42898
C    4.95214    -0.99176    -1.33902
C    5.64979    -1.85728    -0.59394
H    6.51181    -2.36812    -1.01201
H    5.39628    -2.08549    0.43499
H    3.42822    0.48179    -1.66705
H    5.27736    -0.81519    -2.36385
$end


--------------------------------------------------------------
 ----------------------------------------------------------------
             Standard Nuclear Orientation (Angstroms)
    I     Atom           X                Y                Z
 ----------------------------------------------------------------
    1      C       3.1407000000    -0.3300800000     0.2339800000
    2      C       3.7937600000    -0.2315600000    -0.9290300000
    3      H       3.4359900000    -1.0175500000     1.0183700000
    4      H       2.2735000000     0.2934400000     0.4289800000
    5      C       4.9521400000    -0.9917600000    -1.3390200000
    6      C       5.6497900000    -1.8572800000    -0.5939400000
    7      H       6.5118100000    -2.3681200000    -1.0120100000
    8      H       5.3962800000    -2.0854900000     0.4349900000
    9      H       3.4282200000     0.4817900000    -1.6670500000
   10      H       5.2773600000    -0.8151900000    -2.3638500000
 ----------------------------------------------------------------
 Nuclear Repulsion Energy =   105.1736505743 hartrees
 There are       15 alpha and       15 beta electrons
 Requested basis set is STO-3G
 There are 14 shells and 26 basis functions

 Total QAlloc Memory Limit   2000 MB
 Mega-Array Size       188 MB
 MEM_STATIC part       192 MB

finished with qalloc call

                       Distance Matrix (Angstroms)
             C (  1)   C (  2)   H (  3)   H (  4)   C (  5)   C (  6)
   C (  2)  1.337455
   H (  3)  1.084011  2.130293
   H (  4)  1.085743  2.104996  1.848637
   C (  5)  2.488667  1.444936  2.802974  3.457264
   C (  6)  3.051774  2.490000  2.864542  4.131742  1.338277
   H (  7)  4.131644  3.458261  3.925194  5.208035  2.105676  1.085734
   H (  8)  2.865224  2.804581  2.307285  3.925697  2.130872  1.083994
   H (  9)  2.087035  1.089569  3.075640  2.400457  2.145061  3.399733
   H ( 10)  3.398436  2.144855  3.856294  4.248780  1.089597  2.087400
             H (  7)   H (  8)   H (  9)
   H (  8)  1.848809
   H (  9)  4.249658  3.857818
   H ( 10)  2.400610  3.075924  2.363685

 Job number = 2, Threshold = 1.00E-11
Integral type ranges set in mkLRange.C for JobNum: 2  <1-6|1-6>
Symmetry turned off temporarily
 Using the largest function pair in Schwarz integrals
Total number of integrals generated =            3252
Symmetry turned back on
 A cutoff of  1.0D-11 yielded    102 shell pairs
 There are       372 function pairs
 Job number = 11, Threshold = 1.00E-11
Integral type ranges set in mkLRange.C for JobNum: 11  <1-6|7-7>
Total number of integrals generated =            3720
 Smallest overlap matrix eigenvalue = 1.81E-01
 Multipole matrices computed through 2nd order

 Scale SEOQF with 1.000000e-02/1.000000e-01/1.000000e-01

 Standard Electronic Orientation quadrupole field applied
 Nucleus-field energy     =     0.0000000019 hartrees
 ENuRep (before)= 105.1736505743
 ENucField = 0.0000000019
 ENuRep (after) = 105.1736505762
 Guess from superposition of atomic densities
 Warning:  Energy on first SCF cycle will be non-variational
 SAD guess density has 30.000000 electrons

 ==================================================
    GEN_SCFMAN: A general SCF calculation manager  
                                                   
    Authors:                                       
        -- Eric Jon Sundstrom 2008-2014            
        -- Paul Horn 2010-2015                     
        -- Yuezhi Mao 2012-                        
        -- Dmitri Zuev 2014                        
        -- Alec White 2015-                        
        -- David Stuck 2015                        
        -- Shaama M.S. 2015                        
        -- Shane Yost 2015-                         
        -- Joonho Lee 2016-                        
        -- David Small 2016-                       
        -- Daniel Levine 2016-                     
        -- Susi Lehtola 2017-                      
        -- Hugh Burton 2017-                       
 ==================================================
 Hartree-Fock
Finding J and K together
 Job number = 22, Threshold = 1.00E-11
Integral type ranges set in mkLRange.C for JobNum: 22  <1-6|1-6>
 MakeJK  time:  CPU       0.16 s  wall       0.17 s
 A restricted SCF calculation will be
 performed using DIIS
 SCF converges when DIIS error is below 1.0e-08
 ---------------------------------------
  Cycle       Energy         DIIS error
 ---------------------------------------
Finding J and K together
 Job number = 22, Threshold = 1.00E-11
Integral type ranges set in mkLRange.C for JobNum: 22  <1-6|1-6>
 MakeJK  time:  CPU       0.19 s  wall       0.20 s
    1    -152.6390159557      2.15e-01  
Finding J and K together
 Job number = 22, Threshold = 1.00E-11
Integral type ranges set in mkLRange.C for JobNum: 22  <1-6|1-6>
 MakeJK  time:  CPU       0.20 s  wall       0.21 s
    2    -152.9884693739      1.29e-02  
Finding J and K together
 Job number = 22, Threshold = 1.00E-11
Integral type ranges set in mkLRange.C for JobNum: 22  <1-6|1-6>
 MakeJK  time:  CPU       0.19 s  wall       0.20 s
    3    -153.0119597343      3.50e-03  
Finding J and K together
 Job number = 22, Threshold = 1.00E-11
Integral type ranges set in mkLRange.C for JobNum: 22  <1-6|1-6>
 MakeJK  time:  CPU       0.16 s  wall       0.16 s
    4    -153.0136675635      1.40e-03  
Finding J and K together
 Job number = 22, Threshold = 1.00E-11
Integral type ranges set in mkLRange.C for JobNum: 22  <1-6|1-6>
 MakeJK  time:  CPU       0.12 s  wall       0.12 s
    5    -153.0138693366      1.04e-04  
Finding J and K together
 Job number = 22, Threshold = 1.00E-11
Integral type ranges set in mkLRange.C for JobNum: 22  <1-6|1-6>
 MakeJK  time:  CPU       0.15 s  wall       0.15 s
    6    -153.0138731379      1.70e-05  
Finding J and K together
 Job number = 22, Threshold = 1.00E-11
Integral type ranges set in mkLRange.C for JobNum: 22  <1-6|1-6>
 MakeJK  time:  CPU       0.19 s  wall       0.19 s
    7    -153.0138732476      2.04e-06  
Finding J and K together
 Job number = 22, Threshold = 1.00E-11
Integral type ranges set in mkLRange.C for JobNum: 22  <1-6|1-6>
 MakeJK  time:  CPU       0.17 s  wall       0.17 s
    8    -153.0138732486      2.91e-07  
Finding J and K together
 Job number = 22, Threshold = 1.00E-11
Integral type ranges set in mkLRange.C for JobNum: 22  <1-6|1-6>
 MakeJK  time:  CPU       0.16 s  wall       0.16 s
    9    -153.0138732486      1.20e-07  
Finding J and K together
 Job number = 22, Threshold = 1.00E-11
Integral type ranges set in mkLRange.C for JobNum: 22  <1-6|1-6>
 MakeJK  time:  CPU       0.16 s  wall       0.16 s
   10    -153.0138732486      4.84e-08  
   11    -153.0138732486      6.16e-09  Convergence criterion met
 ---------------------------------------
 SCF time:   CPU 1.86s  wall 2.00s 
 Total energy in the final basis set =     -153.0138732486
Wall  1 = 2
Clock 1 = 1.8619689941
 ==================================================
                  Done GEN_SCFMAN                  
 ==================================================

Symmetry turned off temporarily

 --------------------------------------------------------------

                    Orbital Energies (a.u.)
 --------------------------------------------------------------

 Alpha MOs
 -- Occupied --
-11.030 -11.030 -11.018 -11.018  -1.034  -0.936  -0.795  -0.676
 -0.627  -0.558  -0.534  -0.462  -0.446  -0.396  -0.263
 -- Virtual --
  0.240   0.424   0.593   0.639   0.663   0.719   0.749   0.847
  0.922   1.013   1.096
 --------------------------------------------------------------

          Ground-State Mulliken Net Atomic Charges

     Atom                 Charge (a.u.)
  ----------------------------------------
      1 C                    -0.122820
      2 C                    -0.061133
      3 H                     0.061758
      4 H                     0.062605
      5 C                    -0.061013
      6 C                    -0.122847
      7 H                     0.062610
      8 H                     0.061704
      9 H                     0.059621
     10 H                     0.059515
  ----------------------------------------
  Sum of atomic charges =     0.000000

 -----------------------------------------------------------------
                    Cartesian Multipole Moments
 -----------------------------------------------------------------
    Charge (ESU x 10^10)
                 0.0000
    Dipole Moment (Debye)
         X      -0.0009      Y       0.0083      Z      -0.0157
       Tot       0.0178
    Quadrupole Moments (Debye-Ang)
        XX     -23.4330     XY      -1.1066     YY     -23.8193
        XZ      -0.6153     YZ      -0.8069     ZZ     -22.5192
    Octopole Moments (Debye-Ang^2)
       XXX    -308.2008    XXY      10.4998    XYY    -102.6380
       YYY      62.1912    XXZ       9.5422    XYZ      -2.2190
       YYZ      16.3118    XZZ     -97.8754    YZZ      20.3585
       ZZZ      42.4151
    Hexadecapole Moments (Debye-Ang^3)
      XXXX   -2885.6362   XXXY     248.2531   XXYY    -503.5296
      XYYY     321.0201   YYYY    -209.1430   XXXZ     183.6333
      XXYZ     -15.1546   XYYZ      78.5175   YYYZ     -43.6407
      XXZZ    -481.1146   XYZZ     104.5672   YYZZ     -60.0745
      XZZZ     211.5006   YZZZ     -41.9829   ZZZZ    -148.7674
 -----------------------------------------------------------------
drvman_main.C: 73: calling DrvMan  Calculating analytic gradient of the SCF energy
drvman.C : 218: Calculating analytic gradient of the SCF energy
drvman.C: 244: calling SCF_Grad for normal SCF gradient
 Job number = 111, Threshold = 1.00E-11
Integral type ranges set in mkLRange.C for JobNum: 11  <1-6|7-7>
Finding J and K together
 ML is being used
 Job number = 122, Threshold = 1.00E-11
Integral type ranges set in mkLRange.C for JobNum: 22  <1-6|1-6>
Total number of integrals generated =           70653
 MakeJK  time:  CPU       0.45 s  wall       0.48 s
 Gradient of SCF Energy
            1           2           3           4           5           6
    1  -0.0132352   0.0482306   0.0013915  -0.0031655  -0.0498855   0.0151283
    2  -0.0052948  -0.0191904  -0.0019239   0.0032777   0.0400627  -0.0202002
    3   0.0282647  -0.0358629   0.0019573  -0.0015339  -0.0043903   0.0211008
            7           8           9          10
    1   0.0030524  -0.0013023  -0.0008131   0.0005988
    2  -0.0006585  -0.0004350   0.0028251   0.0015373
    3  -0.0036510   0.0027369  -0.0039636  -0.0046581
 Max gradient component =       4.989E-02
 RMS gradient           =       1.852E-02
drvman.C: 248: out of SCF_Grad for normal SCF gradient
 Gradient time:  CPU 0.47 s  wall 0.50 s
 ------------------------------------------------------------------------------
                     drvman        : Timing summary (seconds)
 ------------------------------------------------------------------------------
     job step          cpu (% of tot)      sys (% of tot)     wall (% of tot)
 ------------------------------------------------------------------------------
 ------------------------------------------------------------------------------
   Grand Totals     0.4720E+00          0.2000E-05          0.5038E+00
 ------------------------------------------------------------------------------
drvman_main.C: 77: out of DrvMan =======================================================
            AB INITIO MOLECULAR DYNAMICS
=======================================================
Created directory /home/jcartus/scratch/Butadien_24.mol.dir/AIMD
AIMD will take 400 BOMD steps Velocity Verlet integration
Time step = 20.00000 a.u. ( = 0.48378 fs)
Total simulation time requested = 193.511 fs
Integral threshold = 10**(-11)
SCF convergence threshold = 10**(-8)
Generating viewable xyz trajectory,
 file (in Angstroms) at AIMD/View.xyz
Choosing nuclear velocities from Maxwell-Boltzmann
Velocities sampled from Maxwell-Boltzmann at T = 400.0 K
sqrt(kT/m) and (vx,vy,vz) for each atom:
  1   2.4064e-04  -3.27e-04   1.05e-04  -9.72e-05 
  2   2.4064e-04  -3.04e-04  -1.86e-05  -1.68e-04 
  3   8.3036e-04   1.17e-03   7.98e-04   1.90e-04 
  4   8.3036e-04  -3.69e-04   4.71e-04  -2.14e-04 
  5   2.4064e-04  -3.17e-05   4.11e-05   1.13e-04 
  6   2.4064e-04   3.24e-04  -3.83e-04  -1.73e-06 
  7   8.3036e-04  -1.09e-03   7.23e-04  -3.98e-04 
  8   8.3036e-04  -4.77e-04   2.31e-05   2.33e-04 
  9   8.3036e-04  -1.60e-03  -1.77e-04  -1.46e-04 
 10   8.3036e-04   6.05e-05   1.23e-04   5.66e-04 
T(nuclear) = 0.01258370 a.u.
v(c.o.m.) = ( -1.1814e-04,  -2.0149e-05,  -2.9884e-05)
T(c.o.m.) = 7.51537e-04 a.u.
kT/2 = 0.000633 a.u.
Tx   = 0.008387 a.u.
Ty   = 0.003060 a.u.
Tz   = 0.001137 a.u.
Mean velocities (a.u.):  -2.6396e-04   1.7051e-04   7.7592e-06
Removing c.o.m. velocity
T(nuclear) = 0.01242621 a.u.
v(c.o.m.) = ( -2.2538e-20,   3.3806e-21,   4.5075e-21)
T(c.o.m.) = 2.65857e-35 a.u.
kT   = 0.001267 a.u. = 0.79 kcal/mol
Tx   = 0.007651 a.u. = 4.80 kcal/mol
Ty   = 0.003467 a.u. = 2.18 kcal/mol
Tz   = 0.001309 a.u. = 0.82 kcal/mol
Initial velocities in m/s
  1     -5.9959e+02      2.5017e+02     -1.8322e+02 
  2     -5.4860e+02     -2.0885e+01     -3.3819e+02 
  3      3.9549e+03      1.9813e+03      7.6626e+02 
  4      5.7979e+02      1.2665e+03     -1.1731e+02 
  5      4.7131e+01      1.0966e+02      2.7652e+02 
  6      8.2535e+02     -8.1827e+02      2.5658e+01 
  7     -1.0014e+03      1.8182e+03     -5.2018e+02 
  8      3.4242e+02      2.8693e+02      8.6088e+02 
  9     -2.1112e+03     -1.5125e+02      3.1268e+01 
 10      1.5183e+03      5.0564e+02      1.5894e+03 
----------------------------------------------------------------------------
       Nuclear coordinates (Angst) and velocities (a.u.)
----------------------------------------------------------------------------
             x        y        z            v_x         v_y        v_z
----------------------------------------------------------------------------
1      C    3.1407  -0.3301   0.2340    -2.7407e-04   1.1435e-04  -8.3751e-05
2      C    3.7938  -0.2316  -0.9290    -2.5077e-04  -9.5465e-06  -1.5459e-04
3      H    3.4360  -1.0175   1.0184     1.8078e-03   9.0566e-04   3.5026e-04
4      H    2.2735   0.2934   0.4290     2.6502e-04   5.7890e-04  -5.3621e-05
5      C    4.9521  -0.9918  -1.3390     2.1544e-05   5.0127e-05   1.2640e-04
6      C    5.6498  -1.8573  -0.5939     3.7727e-04  -3.7404e-04   1.1728e-05
7      H    6.5118  -2.3681  -1.0120    -4.5774e-04   8.3109e-04  -2.3777e-04
8      H    5.3963  -2.0855   0.4350     1.5652e-04   1.3116e-04   3.9351e-04
9      H    3.4282   0.4818  -1.6670    -9.6504e-04  -6.9137e-05   1.4293e-05
10     H    5.2774  -0.8152  -2.3638     6.9404e-04   2.3113e-04   7.2653e-04
----------------------------------------------------------------------------
Write nuclear velocities every 1 time steps

TIME STEP #1 (t = 0.000 a.u. = 0.00000 fs)
--------------------------------------
 Instantaneous Temperature = 261.6 K
 ----------------------------------------------------------------
             Standard Nuclear Orientation (Angstroms)
    I     Atom           X                Y                Z
 ----------------------------------------------------------------
    1      C       3.1378633540    -0.3288441237     0.2329568645
    2      C       3.7908726333    -0.2315681871    -0.9304925880
    3      H       3.4550425336    -1.0078540373     1.0219642117
    4      H       2.2764872316     0.2993779863     0.4285008632
    5      C       4.9526093681    -0.9914233108    -1.3376609986
    6      C       5.6537096795    -1.8611408892    -0.5939179623
    7      H       6.5067896643    -2.3592862395    -1.0143161601
    8      H       5.3980115605    -2.0840768311     0.4389970624
    9      H       3.4180532735     0.4808955340    -1.6666704006
   10      H       5.2846708589    -0.8128323865    -2.3558923527
 ----------------------------------------------------------------
 Nuclear Repulsion Energy =   105.1117318866 hartrees
 There are       15 alpha and       15 beta electrons

                       Distance Matrix (Angstroms)
             C (  1)   C (  2)   H (  3)   H (  4)   C (  5)   C (  6)
   C (  2)  1.337721
   H (  3)  1.088205  2.127790
   H (  4)  1.083914  2.102886  1.857430
   C (  5)  2.489810  1.446651  2.794782  3.456461
   C (  6)  3.059598  2.497789  2.858900  4.137489  1.342052
   H (  7)  4.126506  3.451147  3.909727  5.200546  2.095490  1.073606
   H (  8)  2.869070  2.808947  2.296353  3.927452  2.132789  1.087196
   H (  9)  2.083931  1.090209  3.073516  2.392878  2.151937  3.410878
   H ( 10)  3.397818  2.145009  3.846490  4.247237  1.085797  2.083193
             H (  7)   H (  8)   H (  9)
   H (  8)  1.848580
   H (  9)  4.246468  3.864344
   H ( 10)  2.384307  3.072510  2.373398

 Applying Cartesian multipole field
    Component          Value
    ---------          -----
     (2,0,0)        1.00000E-12
     (0,2,0)        2.00000E-11
     (0,0,2)       -3.00000E-11
 Nucleus-field energy     =     0.0000000019 hartrees
 ENuRep (before)= 105.1117318866
 ENucField = 0.0000000019
 ENuRep (after) = 105.1117318885
 Job number = 2, Threshold = 1.00E-11
Integral type ranges set in mkLRange.C for JobNum: 2  <1-6|1-6>
Symmetry turned off temporarily
Symmetry turned back on
 Job number = 11, Threshold = 1.00E-11
Integral type ranges set in mkLRange.C for JobNum: 11  <1-6|7-7>
 Smallest overlap matrix eigenvalue = 1.82E-01
 Multipole matrices computed through 2nd order
 Guess from superposition of atomic densities
 Warning:  Energy on first SCF cycle will be non-variational
 SAD guess density has 30.000000 electrons
 SCF convergence criterion is 10**(-8)
 A restricted Hartree-Fock SCF calculation will be
 performed using Pulay DIIS extrapolation
 SCF converges when DIIS error is below 1.0E-08
Finding J and K together
 Job number = 22, Threshold = 1.00E-11
Integral type ranges set in mkLRange.C for JobNum: 22  <1-6|1-6>
 MakeJK  time:  CPU       0.12 s  wall       0.12 s
Fock build time:  0.12 s (CPU) 0.12 s (wall)
DIIS Errors:  Max 1.09E+00 RMS 2.14E-01

Current DIIS subspace size = 1
REM_GRID_RESTART_DIIS = 0

 ---------------------------------------
  Cycle       Energy         DIIS Error
 ---------------------------------------
    1    -152.6364388239      2.14E-01  00000
Finding J and K together
 Job number = 22, Threshold = 1.00E-11
Integral type ranges set in mkLRange.C for JobNum: 22  <1-6|1-6>
 MakeJK  time:  CPU       0.15 s  wall       0.15 s
Fock build time:  0.15 s (CPU) 0.15 s (wall)
DIIS Errors:  Max 6.38E-02 RMS 1.28E-02

Current DIIS subspace size = 2
REM_GRID_RESTART_DIIS = 0

    2    -152.9881587874      1.28E-02  00000
Finding J and K together
 Job number = 22, Threshold = 1.00E-11
Integral type ranges set in mkLRange.C for JobNum: 22  <1-6|1-6>
 MakeJK  time:  CPU       0.13 s  wall       0.13 s
Fock build time:  0.13 s (CPU) 0.13 s (wall)
DIIS Errors:  Max 1.90E-02 RMS 3.49E-03

Current DIIS subspace size = 3
REM_GRID_RESTART_DIIS = 0

    3    -153.0116203837      3.49E-03  00000
Finding J and K together
 Job number = 22, Threshold = 1.00E-11
Integral type ranges set in mkLRange.C for JobNum: 22  <1-6|1-6>
 MakeJK  time:  CPU       0.14 s  wall       0.14 s
Fock build time:  0.14 s (CPU) 0.14 s (wall)
DIIS Errors:  Max 6.62E-03 RMS 1.40E-03

Current DIIS subspace size = 4
REM_GRID_RESTART_DIIS = 0

    4    -153.0133283954      1.40E-03  00000
Finding J and K together
 Job number = 22, Threshold = 1.00E-11
Integral type ranges set in mkLRange.C for JobNum: 22  <1-6|1-6>
 MakeJK  time:  CPU       0.12 s  wall       0.12 s
Fock build time:  0.12 s (CPU) 0.12 s (wall)
DIIS Errors:  Max 6.75E-04 RMS 1.04E-04

Current DIIS subspace size = 5
REM_GRID_RESTART_DIIS = 0

    5    -153.0135299563      1.04E-04  00000
Finding J and K together
 Job number = 22, Threshold = 1.00E-11
Integral type ranges set in mkLRange.C for JobNum: 22  <1-6|1-6>
 MakeJK  time:  CPU       0.14 s  wall       0.15 s
Fock build time:  0.14 s (CPU) 0.15 s (wall)
DIIS Errors:  Max 1.08E-04 RMS 1.64E-05

Current DIIS subspace size = 6
REM_GRID_RESTART_DIIS = 0

    6    -153.0135338137      1.64E-05  00000
Finding J and K together
 Job number = 22, Threshold = 1.00E-11
Integral type ranges set in mkLRange.C for JobNum: 22  <1-6|1-6>
 MakeJK  time:  CPU       0.13 s  wall       0.14 s
Fock build time:  0.14 s (CPU) 0.14 s (wall)
DIIS Errors:  Max 9.42E-06 RMS 1.98E-06

Current DIIS subspace size = 7
REM_GRID_RESTART_DIIS = 0

    7    -153.0135339158      1.98E-06  00000
Finding J and K together
 Job number = 22, Threshold = 1.00E-11
Integral type ranges set in mkLRange.C for JobNum: 22  <1-6|1-6>
 MakeJK  time:  CPU       0.17 s  wall       0.18 s
Fock build time:  0.17 s (CPU) 0.18 s (wall)
DIIS Errors:  Max 2.10E-06 RMS 3.60E-07

Current DIIS subspace size = 8
REM_GRID_RESTART_DIIS = 0

    8    -153.0135339167      3.60E-07  00000
Finding J and K together
 Job number = 22, Threshold = 1.00E-11
Integral type ranges set in mkLRange.C for JobNum: 22  <1-6|1-6>
 MakeJK  time:  CPU       0.14 s  wall       0.14 s
Fock build time:  0.14 s (CPU) 0.14 s (wall)
DIIS Errors:  Max 7.89E-07 RMS 1.27E-07

Current DIIS subspace size = 9
REM_GRID_RESTART_DIIS = 0

    9    -153.0135339167      1.27E-07  00000
Finding J and K together
 Job number = 22, Threshold = 1.00E-11
Integral type ranges set in mkLRange.C for JobNum: 22  <1-6|1-6>
 MakeJK  time:  CPU       0.14 s  wall       0.14 s
Fock build time:  0.14 s (CPU) 0.14 s (wall)
DIIS Errors:  Max 3.66E-07 RMS 5.08E-08

Current DIIS subspace size = 10
REM_GRID_RESTART_DIIS = 0

   10    -153.0135339167      5.08E-08  00000
Finding J and K together
 Job number = 22, Threshold = 1.00E-11
Integral type ranges set in mkLRange.C for JobNum: 22  <1-6|1-6>
 MakeJK  time:  CPU       0.15 s  wall       0.15 s
Fock build time:  0.15 s (CPU) 0.16 s (wall)
DIIS Errors:  Max 5.46E-08 RMS 9.19E-09

Current DIIS subspace size = 11
REM_GRID_RESTART_DIIS = 0

   11    -153.0135339168      9.19E-09  00000 Convergence criterion met
 ---------------------------------------
 SCF time:  CPU 1.54 s  wall 1.60 s
 SCF   energy in the final basis set = -153.01353392
 Total energy in the final basis set = -153.01353392
drvman_main.C: 73: calling DrvMan  Calculating analytic gradient of the SCF energy
drvman.C : 218: Calculating analytic gradient of the SCF energy
drvman.C: 244: calling SCF_Grad for normal SCF gradient
 Job number = 111, Threshold = 1.00E-11
Integral type ranges set in mkLRange.C for JobNum: 11  <1-6|7-7>
 Warning:  Cost of integrals step H3 set to -1893071293
 Warning:  Retrieved cost of -1893071293 for integrals step H3
 Warning:  Retrieved cost of -1893071293 for integrals step H3
Finding J and K together
 ML is being used
 Job number = 122, Threshold = 1.00E-11
Integral type ranges set in mkLRange.C for JobNum: 22  <1-6|1-6>
 MakeJK  time:  CPU       0.43 s  wall       0.44 s
 Gradient of SCF Energy
            1           2           3           4           5           6
    1  -0.0189566   0.0481440   0.0044611  -0.0014111  -0.0509045   0.0288434
    2  -0.0028047  -0.0187036  -0.0040902   0.0033010   0.0425634  -0.0302598
    3   0.0260242  -0.0355823   0.0041615  -0.0024023  -0.0098086   0.0164893
            7           8           9          10
    1  -0.0060200  -0.0026748  -0.0018626   0.0003812
    2   0.0051442   0.0002153   0.0037501   0.0008843
    3  -0.0002829   0.0058294  -0.0033685  -0.0010597
 Max gradient component =       5.090E-02
 RMS gradient           =       1.975E-02
drvman.C: 248: out of SCF_Grad for normal SCF gradient
 Gradient time:  CPU 0.45 s  wall 0.46 s
 ------------------------------------------------------------------------------
                     drvman        : Timing summary (seconds)
 ------------------------------------------------------------------------------
     job step          cpu (% of tot)      sys (% of tot)     wall (% of tot)
 ------------------------------------------------------------------------------
 ------------------------------------------------------------------------------
   Grand Totals     0.4520E+00          0.2000E-05          0.4638E+00
 ------------------------------------------------------------------------------
drvman_main.C: 77: out of DrvMan  Time for this dynamics step: 2.0 s (CPU) 2.1 s (wall)

TIME STEP #2 (t = 20.000 a.u. = 0.48378 fs)
--------------------------------------
 Instantaneous Temperature = 254.5 K
 ----------------------------------------------------------------
             Standard Nuclear Orientation (Angstroms)
    I     Atom           X                Y                Z
 ----------------------------------------------------------------
    1      C       3.1352101425    -0.3275811072     0.2316819050
    2      C       3.7875194000    -0.2313953881    -0.9316108627
    3      H       3.4735810755    -0.9976868179     1.0250789526
    4      H       2.2796370424     0.3049356476     0.4282985093
    5      C       4.9535713157    -0.9914984879    -1.3362070841
    6      C       5.6573502551    -1.8647089687    -0.5940554835
    7      H       6.5024629301    -2.3510451747    -1.0165897237
    8      H       5.4000513066    -2.0826884729     0.4423324858
    9      H       3.4081011443     0.4795689974    -1.6659026974
   10      H       5.2919377938    -0.8105766605    -2.3478126067
 ----------------------------------------------------------------
 Nuclear Repulsion Energy =   105.0626691159 hartrees
 There are       15 alpha and       15 beta electrons

                       Distance Matrix (Angstroms)
             C (  1)   C (  2)   H (  3)   H (  4)   C (  5)   C (  6)
   C (  2)  1.337165
   H (  3)  1.092252  2.124711
   H (  4)  1.082008  2.100170  1.865067
   C (  5)  2.491084  1.449528  2.786769  3.456030
   C (  6)  3.066887  2.505579  2.853449  4.142646  1.344838
   H (  7)  4.122012  3.445440  3.895397  5.193669  2.085567  1.062673
   H (  8)  2.873026  2.813408  2.286506  3.929113  2.133833  1.089871
   H (  9)  2.080093  1.090235  3.070497  2.385290  2.158985  3.421055
   H ( 10)  3.396844  2.145776  3.836382  4.245600  1.081929  2.078554
             H (  7)   H (  8)   H (  9)
   H (  8)  1.848183
   H (  9)  4.243708  3.870101
   H ( 10)  2.368664  3.068365  2.382922

 Applying Cartesian multipole field
    Component          Value
    ---------          -----
     (2,0,0)        1.00000E-12
     (0,2,0)        2.00000E-11
     (0,0,2)       -3.00000E-11
 Nucleus-field energy     =     0.0000000019 hartrees
 ENuRep (before)= 105.0626691159
 ENucField = 0.0000000019
 ENuRep (after) = 105.0626691178
 Job number = 2, Threshold = 1.00E-11
Integral type ranges set in mkLRange.C for JobNum: 2  <1-6|1-6>
Symmetry turned off temporarily
Symmetry turned back on
 Job number = 11, Threshold = 1.00E-11
Integral type ranges set in mkLRange.C for JobNum: 11  <1-6|7-7>
 Smallest overlap matrix eigenvalue = 1.82E-01
 Multipole matrices computed through 2nd order
 Guess from superposition of atomic densities
 Warning:  Energy on first SCF cycle will be non-variational
 SAD guess density has 30.000000 electrons
 SCF convergence criterion is 10**(-8)
 A restricted Hartree-Fock SCF calculation will be
 performed using Pulay DIIS extrapolation
 SCF converges when DIIS error is below 1.0E-08
Finding J and K together
 Job number = 22, Threshold = 1.00E-11
Integral type ranges set in mkLRange.C for JobNum: 22  <1-6|1-6>
 MakeJK  time:  CPU       0.12 s  wall       0.12 s
Fock build time:  0.12 s (CPU) 0.12 s (wall)
DIIS Errors:  Max 1.09E+00 RMS 2.14E-01

Current DIIS subspace size = 1
REM_GRID_RESTART_DIIS = 0

 ---------------------------------------
  Cycle       Energy         DIIS Error
 ---------------------------------------
    1    -152.6361184454      2.14E-01  00000
Finding J and K together
 Job number = 22, Threshold = 1.00E-11
Integral type ranges set in mkLRange.C for JobNum: 22  <1-6|1-6>
 MakeJK  time:  CPU       0.14 s  wall       0.14 s
Fock build time:  0.14 s (CPU) 0.14 s (wall)
DIIS Errors:  Max 6.32E-02 RMS 1.28E-02

Current DIIS subspace size = 2
REM_GRID_RESTART_DIIS = 0

    2    -152.9875798287      1.28E-02  00000
Finding J and K together
 Job number = 22, Threshold = 1.00E-11
Integral type ranges set in mkLRange.C for JobNum: 22  <1-6|1-6>
 MakeJK  time:  CPU       0.13 s  wall       0.13 s
Fock build time:  0.13 s (CPU) 0.14 s (wall)
DIIS Errors:  Max 1.90E-02 RMS 3.49E-03

Current DIIS subspace size = 3
REM_GRID_RESTART_DIIS = 0

    3    -153.0110155747      3.49E-03  00000
Finding J and K together
 Job number = 22, Threshold = 1.00E-11
Integral type ranges set in mkLRange.C for JobNum: 22  <1-6|1-6>
 MakeJK  time:  CPU       0.14 s  wall       0.15 s
Fock build time:  0.14 s (CPU) 0.15 s (wall)
DIIS Errors:  Max 6.70E-03 RMS 1.40E-03

Current DIIS subspace size = 4
REM_GRID_RESTART_DIIS = 0

    4    -153.0127223662      1.40E-03  00000
Finding J and K together
 Job number = 22, Threshold = 1.00E-11
Integral type ranges set in mkLRange.C for JobNum: 22  <1-6|1-6>
 MakeJK  time:  CPU       0.14 s  wall       0.14 s
Fock build time:  0.14 s (CPU) 0.14 s (wall)
DIIS Errors:  Max 6.79E-04 RMS 1.04E-04

Current DIIS subspace size = 5
REM_GRID_RESTART_DIIS = 0

    5    -153.0129235178      1.04E-04  00000
Finding J and K together
 Job number = 22, Threshold = 1.00E-11
Integral type ranges set in mkLRange.C for JobNum: 22  <1-6|1-6>
 MakeJK  time:  CPU       0.18 s  wall       0.18 s
Fock build time:  0.18 s (CPU) 0.18 s (wall)
DIIS Errors:  Max 1.05E-04 RMS 1.60E-05

Current DIIS subspace size = 6
REM_GRID_RESTART_DIIS = 0

    6    -153.0129273747      1.60E-05  00000
Finding J and K together
 Job number = 22, Threshold = 1.00E-11
Integral type ranges set in mkLRange.C for JobNum: 22  <1-6|1-6>
 MakeJK  time:  CPU       0.12 s  wall       0.12 s
Fock build time:  0.12 s (CPU) 0.12 s (wall)
DIIS Errors:  Max 9.25E-06 RMS 2.03E-06

Current DIIS subspace size = 7
REM_GRID_RESTART_DIIS = 0

    7    -153.0129274706      2.03E-06  00000
Finding J and K together
 Job number = 22, Threshold = 1.00E-11
Integral type ranges set in mkLRange.C for JobNum: 22  <1-6|1-6>
 MakeJK  time:  CPU       0.13 s  wall       0.13 s
Fock build time:  0.13 s (CPU) 0.13 s (wall)
DIIS Errors:  Max 2.80E-06 RMS 5.53E-07

Current DIIS subspace size = 8
REM_GRID_RESTART_DIIS = 0

    8    -153.0129274715      5.53E-07  00000
Finding J and K together
 Job number = 22, Threshold = 1.00E-11
Integral type ranges set in mkLRange.C for JobNum: 22  <1-6|1-6>
 MakeJK  time:  CPU       0.20 s  wall       0.20 s
Fock build time:  0.20 s (CPU) 0.20 s (wall)
DIIS Errors:  Max 7.25E-07 RMS 1.21E-07

Current DIIS subspace size = 9
REM_GRID_RESTART_DIIS = 0

    9    -153.0129274715      1.21E-07  00000
Finding J and K together
 Job number = 22, Threshold = 1.00E-11
Integral type ranges set in mkLRange.C for JobNum: 22  <1-6|1-6>
 MakeJK  time:  CPU       0.20 s  wall       0.20 s
Fock build time:  0.20 s (CPU) 0.20 s (wall)
DIIS Errors:  Max 4.17E-07 RMS 5.39E-08

Current DIIS subspace size = 10
REM_GRID_RESTART_DIIS = 0

   10    -153.0129274715      5.39E-08  00000
Finding J and K together
 Job number = 22, Threshold = 1.00E-11
Integral type ranges set in mkLRange.C for JobNum: 22  <1-6|1-6>
 MakeJK  time:  CPU       0.20 s  wall       0.20 s
Fock build time:  0.20 s (CPU) 0.20 s (wall)
DIIS Errors:  Max 9.21E-08 RMS 1.28E-08

Current DIIS subspace size = 11
REM_GRID_RESTART_DIIS = 0

   11    -153.0129274715      1.28E-08  00000
Finding J and K together
 Job number = 22, Threshold = 1.00E-11
Integral type ranges set in mkLRange.C for JobNum: 22  <1-6|1-6>
 MakeJK  time:  CPU       0.15 s  wall       0.15 s
Fock build time:  0.15 s (CPU) 0.15 s (wall)
DIIS Errors:  Max 1.22E-08 RMS 2.40E-09

Current DIIS subspace size = 12
REM_GRID_RESTART_DIIS = 0

   12    -153.0129274715      2.40E-09  00000 Convergence criterion met
 ---------------------------------------
 SCF time:  CPU 1.88 s  wall 1.89 s
 SCF   energy in the final basis set = -153.01292747
 Total energy in the final basis set = -153.01292747
drvman_main.C: 73: calling DrvMan  Calculating analytic gradient of the SCF energy
drvman.C : 218: Calculating analytic gradient of the SCF energy
drvman.C: 244: calling SCF_Grad for normal SCF gradient
 Job number = 111, Threshold = 1.00E-11
Integral type ranges set in mkLRange.C for JobNum: 11  <1-6|7-7>
Finding J and K together
 ML is being used
 Job number = 122, Threshold = 1.00E-11
Integral type ranges set in mkLRange.C for JobNum: 22  <1-6|1-6>
 MakeJK  time:  CPU       0.37 s  wall       0.37 s
 Gradient of SCF Energy
            1           2           3           4           5           6
    1  -0.0240899   0.0465441   0.0074433   0.0004006  -0.0503220   0.0412213
    2  -0.0004158  -0.0174037  -0.0059740   0.0031711   0.0437466  -0.0390948
    3   0.0229224  -0.0344592   0.0062378  -0.0032100  -0.0148683   0.0116810
            7           8           9          10
    1  -0.0147113  -0.0038422  -0.0026907   0.0000469
    2   0.0105525   0.0009214   0.0042831   0.0002136
    3   0.0030691   0.0084185  -0.0024340   0.0026428
 Max gradient component =       5.032E-02
 RMS gradient           =       2.114E-02
drvman.C: 248: out of SCF_Grad for normal SCF gradient
 Gradient time:  CPU 0.39 s  wall 0.39 s
 ------------------------------------------------------------------------------
                     drvman        : Timing summary (seconds)
 ------------------------------------------------------------------------------
     job step          cpu (% of tot)      sys (% of tot)     wall (% of tot)
 ------------------------------------------------------------------------------
 ------------------------------------------------------------------------------
   Grand Totals     0.3880E+00          0.2000E-05          0.3917E+00
 ------------------------------------------------------------------------------
drvman_main.C: 77: out of DrvMan  Time for this dynamics step: 2.3 s (CPU) 2.3 s (wall)

TIME STEP #3 (t = 40.000 a.u. = 0.96755 fs)
--------------------------------------
 Instantaneous Temperature = 242.0 K
 ----------------------------------------------------------------
             Standard Nuclear Orientation (Angstroms)
    I     Atom           X                Y                Z
 ----------------------------------------------------------------
    1      C       3.1327900379    -0.3263140672     0.2301851365
    2      C       3.7837157816    -0.2310541812    -0.9323956920
    3      H       3.4912620272    -0.9868312954     1.0274750020
    4      H       2.2827406962     0.3101279411     0.4284659983
    5      C       4.9550202056    -0.9919969805    -1.3346092959
    6      C       5.6605919519    -1.8678987459    -0.5943060360
    7      H       6.4998311718    -2.3440199239    -1.0192168964
    8      H       5.4025337359    -2.0814062765     0.4446979629
    9      H       3.3984590332     0.4777489731    -1.6648545593
   10      H       5.2991993306    -0.8083455438    -2.3400373531
 ----------------------------------------------------------------
 Nuclear Repulsion Energy =   105.0230706042 hartrees
 There are       15 alpha and       15 beta electrons

                       Distance Matrix (Angstroms)
             C (  1)   C (  2)   H (  3)   H (  4)   C (  5)   C (  6)
   C (  2)  1.335804
   H (  3)  1.095653  2.120807
   H (  4)  1.080258  2.097081  1.871213
   C (  5)  2.492436  1.453535  2.778859  3.456160
   C (  6)  3.073443  2.513211  2.848236  4.147257  1.346508
   H (  7)  4.119358  3.442302  3.883606  5.188848  2.076988  1.054307
   H (  8)  2.877169  2.817936  2.278307  3.931006  2.133780  1.091654
   H (  9)  2.075638  1.089642  3.066308  2.378007  2.166125  3.430070
   H ( 10)  3.395840  2.147420  3.826308  4.244363  1.078458  2.073846
             H (  7)   H (  8)   H (  9)
   H (  8)  1.848263
   H (  9)  4.242374  3.875023
   H ( 10)  2.354651  3.063676  2.392222

 Applying Cartesian multipole field
    Component          Value
    ---------          -----
     (2,0,0)        1.00000E-12
     (0,2,0)        2.00000E-11
     (0,0,2)       -3.00000E-11
 Nucleus-field energy     =     0.0000000019 hartrees
 ENuRep (before)= 105.0230706042
 ENucField = 0.0000000019
 ENuRep (after) = 105.0230706061
 Job number = 2, Threshold = 1.00E-11
Integral type ranges set in mkLRange.C for JobNum: 2  <1-6|1-6>
Symmetry turned off temporarily
Symmetry turned back on
 Job number = 11, Threshold = 1.00E-11
Integral type ranges set in mkLRange.C for JobNum: 11  <1-6|7-7>
 Smallest overlap matrix eigenvalue = 1.82E-01
 Multipole matrices computed through 2nd order
 Guess from superposition of atomic densities
 Warning:  Energy on first SCF cycle will be non-variational
 SAD guess density has 30.000000 electrons
 SCF convergence criterion is 10**(-8)
 A restricted Hartree-Fock SCF calculation will be
 performed using Pulay DIIS extrapolation
 SCF converges when DIIS error is below 1.0E-08
Finding J and K together
 Job number = 22, Threshold = 1.00E-11
Integral type ranges set in mkLRange.C for JobNum: 22  <1-6|1-6>
 MakeJK  time:  CPU       0.09 s  wall       0.09 s
Fock build time:  0.09 s (CPU) 0.09 s (wall)
DIIS Errors:  Max 1.09E+00 RMS 2.14E-01

Current DIIS subspace size = 1
REM_GRID_RESTART_DIIS = 0

 ---------------------------------------
  Cycle       Energy         DIIS Error
 ---------------------------------------
    1    -152.6372110603      2.14E-01  00000
Finding J and K together
 Job number = 22, Threshold = 1.00E-11
Integral type ranges set in mkLRange.C for JobNum: 22  <1-6|1-6>
 MakeJK  time:  CPU       0.15 s  wall       0.15 s
Fock build time:  0.15 s (CPU) 0.15 s (wall)
DIIS Errors:  Max 6.28E-02 RMS 1.28E-02

Current DIIS subspace size = 2
REM_GRID_RESTART_DIIS = 0

    2    -152.9869376131      1.28E-02  00000
Finding J and K together
 Job number = 22, Threshold = 1.00E-11
Integral type ranges set in mkLRange.C for JobNum: 22  <1-6|1-6>
 MakeJK  time:  CPU       0.12 s  wall       0.12 s
Fock build time:  0.12 s (CPU) 0.12 s (wall)
DIIS Errors:  Max 1.89E-02 RMS 3.49E-03

Current DIIS subspace size = 3
REM_GRID_RESTART_DIIS = 0

    3    -153.0103506973      3.49E-03  00000
Finding J and K together
 Job number = 22, Threshold = 1.00E-11
Integral type ranges set in mkLRange.C for JobNum: 22  <1-6|1-6>
 MakeJK  time:  CPU       0.16 s  wall       0.15 s
Fock build time:  0.16 s (CPU) 0.15 s (wall)
DIIS Errors:  Max 6.74E-03 RMS 1.40E-03

Current DIIS subspace size = 4
REM_GRID_RESTART_DIIS = 0

    4    -153.0120550161      1.40E-03  00000
Finding J and K together
 Job number = 22, Threshold = 1.00E-11
Integral type ranges set in mkLRange.C for JobNum: 22  <1-6|1-6>
 MakeJK  time:  CPU       0.15 s  wall       0.15 s
Fock build time:  0.15 s (CPU) 0.15 s (wall)
DIIS Errors:  Max 6.77E-04 RMS 1.04E-04

Current DIIS subspace size = 5
REM_GRID_RESTART_DIIS = 0

    5    -153.0122552801      1.04E-04  00000
Finding J and K together
 Job number = 22, Threshold = 1.00E-11
Integral type ranges set in mkLRange.C for JobNum: 22  <1-6|1-6>
 MakeJK  time:  CPU       0.12 s  wall       0.13 s
Fock build time:  0.13 s (CPU) 0.13 s (wall)
DIIS Errors:  Max 1.02E-04 RMS 1.56E-05

Current DIIS subspace size = 6
REM_GRID_RESTART_DIIS = 0

    6    -153.0122590771      1.56E-05  00000
Finding J and K together
 Job number = 22, Threshold = 1.00E-11
Integral type ranges set in mkLRange.C for JobNum: 22  <1-6|1-6>
 MakeJK  time:  CPU       0.13 s  wall       0.13 s
Fock build time:  0.14 s (CPU) 0.13 s (wall)
DIIS Errors:  Max 9.10E-06 RMS 2.00E-06

Current DIIS subspace size = 7
REM_GRID_RESTART_DIIS = 0

    7    -153.0122591676      2.00E-06  00000
Finding J and K together
 Job number = 22, Threshold = 1.00E-11
Integral type ranges set in mkLRange.C for JobNum: 22  <1-6|1-6>
 MakeJK  time:  CPU       0.13 s  wall       0.13 s
Fock build time:  0.13 s (CPU) 0.13 s (wall)
DIIS Errors:  Max 2.61E-06 RMS 5.51E-07

Current DIIS subspace size = 8
REM_GRID_RESTART_DIIS = 0

    8    -153.0122591685      5.51E-07  00000
Finding J and K together
 Job number = 22, Threshold = 1.00E-11
Integral type ranges set in mkLRange.C for JobNum: 22  <1-6|1-6>
 MakeJK  time:  CPU       0.14 s  wall       0.14 s
Fock build time:  0.14 s (CPU) 0.14 s (wall)
DIIS Errors:  Max 6.84E-07 RMS 1.09E-07

Current DIIS subspace size = 9
REM_GRID_RESTART_DIIS = 0

    9    -153.0122591685      1.09E-07  00000
Finding J and K together
 Job number = 22, Threshold = 1.00E-11
Integral type ranges set in mkLRange.C for JobNum: 22  <1-6|1-6>
 MakeJK  time:  CPU       0.15 s  wall       0.15 s
Fock build time:  0.15 s (CPU) 0.15 s (wall)
DIIS Errors:  Max 3.99E-07 RMS 5.30E-08

Current DIIS subspace size = 10
REM_GRID_RESTART_DIIS = 0

   10    -153.0122591685      5.30E-08  00000
Finding J and K together
 Job number = 22, Threshold = 1.00E-11
Integral type ranges set in mkLRange.C for JobNum: 22  <1-6|1-6>
 MakeJK  time:  CPU       0.16 s  wall       0.16 s
Fock build time:  0.16 s (CPU) 0.16 s (wall)
DIIS Errors:  Max 1.01E-07 RMS 1.40E-08

Current DIIS subspace size = 11
REM_GRID_RESTART_DIIS = 0

   11    -153.0122591685      1.40E-08  00000
Finding J and K together
 Job number = 22, Threshold = 1.00E-11
Integral type ranges set in mkLRange.C for JobNum: 22  <1-6|1-6>
 MakeJK  time:  CPU       0.14 s  wall       0.15 s
Fock build time:  0.14 s (CPU) 0.15 s (wall)
DIIS Errors:  Max 1.18E-08 RMS 2.44E-09

Current DIIS subspace size = 12
REM_GRID_RESTART_DIIS = 0

   12    -153.0122591685      2.44E-09  00000 Convergence criterion met
 ---------------------------------------
 SCF time:  CPU 1.68 s  wall 1.69 s
 SCF   energy in the final basis set = -153.01225917
 Total energy in the final basis set = -153.01225917
drvman_main.C: 73: calling DrvMan  Calculating analytic gradient of the SCF energy
drvman.C : 218: Calculating analytic gradient of the SCF energy
drvman.C: 244: calling SCF_Grad for normal SCF gradient
 Job number = 111, Threshold = 1.00E-11
Integral type ranges set in mkLRange.C for JobNum: 11  <1-6|7-7>
Finding J and K together
 ML is being used
 Job number = 122, Threshold = 1.00E-11
Integral type ranges set in mkLRange.C for JobNum: 22  <1-6|1-6>
 MakeJK  time:  CPU       0.43 s  wall       0.43 s
 Gradient of SCF Energy
            1           2           3           4           5           6
    1  -0.0282773   0.0434770   0.0101582   0.0020910  -0.0482629   0.0507910
    2   0.0014789  -0.0153197  -0.0073236   0.0030131   0.0435055  -0.0459198
    3   0.0192241  -0.0325397   0.0078979  -0.0038989  -0.0190847   0.0075877
            7           8           9          10
    1  -0.0217250  -0.0046996  -0.0032731  -0.0002793
    2   0.0148315   0.0017113   0.0044204  -0.0003977
    3   0.0057604   0.0101966  -0.0011785   0.0060351
 Max gradient component =       5.079E-02
 RMS gradient           =       2.225E-02
drvman.C: 248: out of SCF_Grad for normal SCF gradient
 Gradient time:  CPU 0.45 s  wall 0.46 s
 ------------------------------------------------------------------------------
                     drvman        : Timing summary (seconds)
 ------------------------------------------------------------------------------
     job step          cpu (% of tot)      sys (% of tot)     wall (% of tot)
 ------------------------------------------------------------------------------
 ------------------------------------------------------------------------------
   Grand Totals     0.4520E+00          0.1000E-05          0.4566E+00
 ------------------------------------------------------------------------------
drvman_main.C: 77: out of DrvMan  Time for this dynamics step: 2.2 s (CPU) 2.2 s (wall)

TIME STEP #4 (t = 60.000 a.u. = 1.45133 fs)
--------------------------------------
 Instantaneous Temperature = 228.3 K
 ----------------------------------------------------------------
             Standard Nuclear Orientation (Angstroms)
    I     Atom           X                Y                Z
 ----------------------------------------------------------------
    1      C       3.1306435592    -0.3250613380     0.2285023451
    2      C       3.7794914567    -0.2305647327    -0.9328656496
    3      H       3.5077725939    -0.9751319777     1.0289610907
    4      H       2.2856034277     0.3149730762     0.4290827021
    5      C       4.9569361126    -0.9929164553    -1.3328268340
    6      C       5.6633421680    -1.8706441785    -0.5946300113
    7      H       6.4997024861    -2.3387035061    -1.0225077630
    8      H       5.4055576369    -2.0803212540     0.4458886267
    9      H       3.3891940358     0.4754196453    -1.6636706417
   10      H       5.3064930530    -0.8060686105    -2.3329574364
 ----------------------------------------------------------------
 Nuclear Repulsion Energy =   104.9892824727 hartrees
 There are       15 alpha and       15 beta electrons

                       Distance Matrix (Angstroms)
             C (  1)   C (  2)   H (  3)   H (  4)   C (  5)   C (  6)
   C (  2)  1.333682
   H (  3)  1.097976  2.115887
   H (  4)  1.078874  2.093852  1.875613
   C (  5)  2.493817  1.458604  2.770999  3.457010
   C (  6)  3.079113  2.520547  2.843320  4.151389  1.346978
   H (  7)  4.119507  3.442649  3.875499  5.187268  2.070645  1.049599
   H (  8)  2.881567  2.822526  2.272225  3.933425  2.132496  1.092290
   H (  9)  2.070733  1.088495  3.060789  2.371344  2.173312  3.437821
   H ( 10)  3.395109  2.150162  3.816605  4.243981  1.075808  2.069407
             H (  7)   H (  8)   H (  9)
   H (  8)  1.849352
   H (  9)  4.243306  3.879146
   H ( 10)  2.343074  3.058679  2.401290

 Applying Cartesian multipole field
    Component          Value
    ---------          -----
     (2,0,0)        1.00000E-12
     (0,2,0)        2.00000E-11
     (0,0,2)       -3.00000E-11
 Nucleus-field energy     =     0.0000000019 hartrees
 ENuRep (before)= 104.9892824727
 ENucField = 0.0000000019
 ENuRep (after) = 104.9892824747
 Job number = 2, Threshold = 1.00E-11
Integral type ranges set in mkLRange.C for JobNum: 2  <1-6|1-6>
Symmetry turned off temporarily
Symmetry turned back on
 Job number = 11, Threshold = 1.00E-11
Integral type ranges set in mkLRange.C for JobNum: 11  <1-6|7-7>
 Smallest overlap matrix eigenvalue = 1.82E-01
 Multipole matrices computed through 2nd order
 Guess from superposition of atomic densities
 Warning:  Energy on first SCF cycle will be non-variational
 SAD guess density has 30.000000 electrons
 SCF convergence criterion is 10**(-8)
 A restricted Hartree-Fock SCF calculation will be
 performed using Pulay DIIS extrapolation
 SCF converges when DIIS error is below 1.0E-08
Finding J and K together
 Job number = 22, Threshold = 1.00E-11
Integral type ranges set in mkLRange.C for JobNum: 22  <1-6|1-6>
 MakeJK  time:  CPU       0.15 s  wall       0.16 s
Fock build time:  0.15 s (CPU) 0.16 s (wall)
DIIS Errors:  Max 1.10E+00 RMS 2.14E-01

Current DIIS subspace size = 1
REM_GRID_RESTART_DIIS = 0

 ---------------------------------------
  Cycle       Energy         DIIS Error
 ---------------------------------------
    1    -152.6388721925      2.14E-01  00000
Finding J and K together
 Job number = 22, Threshold = 1.00E-11
Integral type ranges set in mkLRange.C for JobNum: 22  <1-6|1-6>
 MakeJK  time:  CPU       0.19 s  wall       0.20 s
Fock build time:  0.19 s (CPU) 0.20 s (wall)
DIIS Errors:  Max 6.25E-02 RMS 1.28E-02

Current DIIS subspace size = 2
REM_GRID_RESTART_DIIS = 0

    2    -152.9864926990      1.28E-02  00000
Finding J and K together
 Job number = 22, Threshold = 1.00E-11
Integral type ranges set in mkLRange.C for JobNum: 22  <1-6|1-6>
 MakeJK  time:  CPU       0.13 s  wall       0.13 s
Fock build time:  0.14 s (CPU) 0.13 s (wall)
DIIS Errors:  Max 1.90E-02 RMS 3.48E-03

Current DIIS subspace size = 3
REM_GRID_RESTART_DIIS = 0

    3    -153.0098857045      3.48E-03  00000
Finding J and K together
 Job number = 22, Threshold = 1.00E-11
Integral type ranges set in mkLRange.C for JobNum: 22  <1-6|1-6>
 MakeJK  time:  CPU       0.18 s  wall       0.18 s
Fock build time:  0.18 s (CPU) 0.18 s (wall)
DIIS Errors:  Max 6.72E-03 RMS 1.39E-03

Current DIIS subspace size = 4
REM_GRID_RESTART_DIIS = 0

    4    -153.0115864748      1.39E-03  00000
Finding J and K together
 Job number = 22, Threshold = 1.00E-11
Integral type ranges set in mkLRange.C for JobNum: 22  <1-6|1-6>
 MakeJK  time:  CPU       0.20 s  wall       0.20 s
Fock build time:  0.20 s (CPU) 0.20 s (wall)
DIIS Errors:  Max 6.71E-04 RMS 1.03E-04

Current DIIS subspace size = 5
REM_GRID_RESTART_DIIS = 0

    5    -153.0117850375      1.03E-04  00000
Finding J and K together
 Job number = 22, Threshold = 1.00E-11
Integral type ranges set in mkLRange.C for JobNum: 22  <1-6|1-6>
 MakeJK  time:  CPU       0.17 s  wall       0.18 s
Fock build time:  0.17 s (CPU) 0.18 s (wall)
DIIS Errors:  Max 1.00E-04 RMS 1.52E-05

Current DIIS subspace size = 6
REM_GRID_RESTART_DIIS = 0

    6    -153.0117887165      1.52E-05  00000
Finding J and K together
 Job number = 22, Threshold = 1.00E-11
Integral type ranges set in mkLRange.C for JobNum: 22  <1-6|1-6>
 MakeJK  time:  CPU       0.17 s  wall       0.17 s
Fock build time:  0.17 s (CPU) 0.17 s (wall)
DIIS Errors:  Max 8.80E-06 RMS 1.84E-06

Current DIIS subspace size = 7
REM_GRID_RESTART_DIIS = 0

    7    -153.0117888020      1.84E-06  00000
Finding J and K together
 Job number = 22, Threshold = 1.00E-11
Integral type ranges set in mkLRange.C for JobNum: 22  <1-6|1-6>
 MakeJK  time:  CPU       0.18 s  wall       0.18 s
Fock build time:  0.18 s (CPU) 0.18 s (wall)
DIIS Errors:  Max 1.42E-06 RMS 3.11E-07

Current DIIS subspace size = 8
REM_GRID_RESTART_DIIS = 0

    8    -153.0117888028      3.11E-07  00000
Finding J and K together
 Job number = 22, Threshold = 1.00E-11
Integral type ranges set in mkLRange.C for JobNum: 22  <1-6|1-6>
 MakeJK  time:  CPU       0.20 s  wall       0.20 s
Fock build time:  0.20 s (CPU) 0.20 s (wall)
DIIS Errors:  Max 5.41E-07 RMS 7.78E-08

Current DIIS subspace size = 9
REM_GRID_RESTART_DIIS = 0

    9    -153.0117888028      7.78E-08  00000
Finding J and K together
 Job number = 22, Threshold = 1.00E-11
Integral type ranges set in mkLRange.C for JobNum: 22  <1-6|1-6>
 MakeJK  time:  CPU       0.16 s  wall       0.15 s
Fock build time:  0.16 s (CPU) 0.15 s (wall)
DIIS Errors:  Max 2.80E-07 RMS 4.35E-08

Current DIIS subspace size = 10
REM_GRID_RESTART_DIIS = 0

   10    -153.0117888028      4.35E-08  00000
Finding J and K together
 Job number = 22, Threshold = 1.00E-11
Integral type ranges set in mkLRange.C for JobNum: 22  <1-6|1-6>
 MakeJK  time:  CPU       0.12 s  wall       0.12 s
Fock build time:  0.12 s (CPU) 0.12 s (wall)
DIIS Errors:  Max 7.86E-08 RMS 1.22E-08

Current DIIS subspace size = 11
REM_GRID_RESTART_DIIS = 0

   11    -153.0117888028      1.22E-08  00000
Finding J and K together
 Job number = 22, Threshold = 1.00E-11
Integral type ranges set in mkLRange.C for JobNum: 22  <1-6|1-6>
 MakeJK  time:  CPU       0.12 s  wall       0.12 s
Fock build time:  0.12 s (CPU) 0.12 s (wall)
DIIS Errors:  Max 1.14E-08 RMS 2.32E-09

Current DIIS subspace size = 12
REM_GRID_RESTART_DIIS = 0

   12    -153.0117888028      2.32E-09  00000 Convergence criterion met
 ---------------------------------------
 SCF time:  CPU 1.97 s  wall 2.00 s
 SCF   energy in the final basis set = -153.01178880
 Total energy in the final basis set = -153.01178880
drvman_main.C: 73: calling DrvMan  Calculating analytic gradient of the SCF energy
drvman.C : 218: Calculating analytic gradient of the SCF energy
drvman.C: 244: calling SCF_Grad for normal SCF gradient
 Job number = 111, Threshold = 1.00E-11
Integral type ranges set in mkLRange.C for JobNum: 11  <1-6|7-7>
Finding J and K together
 ML is being used
 Job number = 122, Threshold = 1.00E-11
Integral type ranges set in mkLRange.C for JobNum: 22  <1-6|1-6>
 MakeJK  time:  CPU       0.34 s  wall       0.33 s
 Gradient of SCF Energy
            1           2           3           4           5           6
    1  -0.0311969   0.0390480   0.0124358   0.0034977  -0.0449108   0.0562223
    2   0.0025627  -0.0125386  -0.0079578   0.0029492   0.0417716  -0.0500462
    3   0.0151530  -0.0298546   0.0089106  -0.0044162  -0.0219943   0.0050268
            7           8           9          10
    1  -0.0258540  -0.0051705  -0.0036084  -0.0004632
    2   0.0173388   0.0025937   0.0041973  -0.0008708
    3   0.0071624   0.0109495   0.0003446   0.0087182
 Max gradient component =       5.622E-02
 RMS gradient           =       2.261E-02
drvman.C: 248: out of SCF_Grad for normal SCF gradient
 Gradient time:  CPU 0.35 s  wall 0.35 s
 ------------------------------------------------------------------------------
                     drvman        : Timing summary (seconds)
 ------------------------------------------------------------------------------
     job step          cpu (% of tot)      sys (% of tot)     wall (% of tot)
 ------------------------------------------------------------------------------
 ------------------------------------------------------------------------------
   Grand Totals     0.3480E+00          0.2000E-05          0.3461E+00
 ------------------------------------------------------------------------------
drvman_main.C: 77: out of DrvMan  Time for this dynamics step: 2.4 s (CPU) 2.4 s (wall)

TIME STEP #5 (t = 80.000 a.u. = 1.93511 fs)
--------------------------------------
 Instantaneous Temperature = 218.7 K
 ----------------------------------------------------------------
             Standard Nuclear Orientation (Angstroms)
    I     Atom           X                Y                Z
 ----------------------------------------------------------------
    1      C       3.1287989582    -0.3238334073     0.2266729249
    2      C       3.7748892826    -0.2299539536    -0.9330467182
    3      H       3.5228503596    -0.9625157895     1.0294205382
    4      H       2.2880631644     0.3194784147     0.4302082239
    5      C       4.9592866007    -0.9942401347    -1.3308315433
    6      C       5.6655483469    -1.8729053378    -0.5950026290
    7      H       6.5025526043    -2.3353847977    -1.0266238504
    8      H       5.4091772617    -2.0795350690     0.4458177342
    9      H       3.3803447809     0.4726067190    -1.6625264328
   10      H       5.3138401444    -0.8036913489    -2.3268820026
 ----------------------------------------------------------------
 Nuclear Repulsion Energy =   104.9583259365 hartrees
 There are       15 alpha and       15 beta electrons

                       Distance Matrix (Angstroms)
             C (  1)   C (  2)   H (  3)   H (  4)   C (  5)   C (  6)
   C (  2)  1.330863
   H (  3)  1.098906  2.109846
   H (  4)  1.078014  2.090692  1.878101
   C (  5)  2.495185  1.464638  2.763177  3.458692
   C (  6)  3.083808  2.527480  2.838787  4.155119  1.346218
   H (  7)  4.123021  3.446990  3.871784  5.189661  2.067095  1.049171
   H (  8)  2.886284  2.827210  2.268602  3.936605  2.129965  1.091663
   H (  9)  2.065591  1.086921  3.053926  2.365601  2.180532  3.444298
   H ( 10)  3.394895  2.154140  3.807576  4.244807  1.074306  2.065508
             H (  7)   H (  8)   H (  9)
   H (  8)  1.851759
   H (  9)  4.247043  3.882616
   H ( 10)  2.334479  3.053642  2.410126

 Applying Cartesian multipole field
    Component          Value
    ---------          -----
     (2,0,0)        1.00000E-12
     (0,2,0)        2.00000E-11
     (0,0,2)       -3.00000E-11
 Nucleus-field energy     =     0.0000000019 hartrees
 ENuRep (before)= 104.9583259365
 ENucField = 0.0000000019
 ENuRep (after) = 104.9583259384
 Job number = 2, Threshold = 1.00E-11
Integral type ranges set in mkLRange.C for JobNum: 2  <1-6|1-6>
Symmetry turned off temporarily
Symmetry turned back on
 Job number = 11, Threshold = 1.00E-11
Integral type ranges set in mkLRange.C for JobNum: 11  <1-6|7-7>
 Smallest overlap matrix eigenvalue = 1.81E-01
 Multipole matrices computed through 2nd order
 Guess from superposition of atomic densities
 Warning:  Energy on first SCF cycle will be non-variational
 SAD guess density has 30.000000 electrons
 SCF convergence criterion is 10**(-8)
 A restricted Hartree-Fock SCF calculation will be
 performed using Pulay DIIS extrapolation
 SCF converges when DIIS error is below 1.0E-08
Finding J and K together
 Job number = 22, Threshold = 1.00E-11
Integral type ranges set in mkLRange.C for JobNum: 22  <1-6|1-6>
 MakeJK  time:  CPU       0.09 s  wall       0.09 s
Fock build time:  0.09 s (CPU) 0.09 s (wall)
DIIS Errors:  Max 1.10E+00 RMS 2.14E-01

Current DIIS subspace size = 1
REM_GRID_RESTART_DIIS = 0

 ---------------------------------------
  Cycle       Energy         DIIS Error
 ---------------------------------------
    1    -152.6404576006      2.14E-01  00000
Finding J and K together
 Job number = 22, Threshold = 1.00E-11
Integral type ranges set in mkLRange.C for JobNum: 22  <1-6|1-6>
 MakeJK  time:  CPU       0.18 s  wall       0.19 s
Fock build time:  0.18 s (CPU) 0.19 s (wall)
DIIS Errors:  Max 6.22E-02 RMS 1.28E-02

Current DIIS subspace size = 2
REM_GRID_RESTART_DIIS = 0

    2    -152.9864326987      1.28E-02  00000
Finding J and K together
 Job number = 22, Threshold = 1.00E-11
Integral type ranges set in mkLRange.C for JobNum: 22  <1-6|1-6>
 MakeJK  time:  CPU       0.20 s  wall       0.22 s
Fock build time:  0.20 s (CPU) 0.22 s (wall)
DIIS Errors:  Max 1.90E-02 RMS 3.48E-03

Current DIIS subspace size = 3
REM_GRID_RESTART_DIIS = 0

    3    -153.0098080925      3.48E-03  00000
Finding J and K together
 Job number = 22, Threshold = 1.00E-11
Integral type ranges set in mkLRange.C for JobNum: 22  <1-6|1-6>
 MakeJK  time:  CPU       0.19 s  wall       0.20 s
Fock build time:  0.19 s (CPU) 0.20 s (wall)
DIIS Errors:  Max 6.65E-03 RMS 1.38E-03

Current DIIS subspace size = 4
REM_GRID_RESTART_DIIS = 0

    4    -153.0115045116      1.38E-03  00000
Finding J and K together
 Job number = 22, Threshold = 1.00E-11
Integral type ranges set in mkLRange.C for JobNum: 22  <1-6|1-6>
 MakeJK  time:  CPU       0.20 s  wall       0.23 s
Fock build time:  0.20 s (CPU) 0.23 s (wall)
DIIS Errors:  Max 6.61E-04 RMS 1.01E-04

Current DIIS subspace size = 5
REM_GRID_RESTART_DIIS = 0

    5    -153.0117003900      1.01E-04  00000
Finding J and K together
 Job number = 22, Threshold = 1.00E-11
Integral type ranges set in mkLRange.C for JobNum: 22  <1-6|1-6>
 MakeJK  time:  CPU       0.20 s  wall       0.21 s
Fock build time:  0.20 s (CPU) 0.21 s (wall)
DIIS Errors:  Max 9.76E-05 RMS 1.49E-05

Current DIIS subspace size = 6
REM_GRID_RESTART_DIIS = 0

    6    -153.0117038985      1.49E-05  00000
Finding J and K together
 Job number = 22, Threshold = 1.00E-11
Integral type ranges set in mkLRange.C for JobNum: 22  <1-6|1-6>
 MakeJK  time:  CPU       0.20 s  wall       0.21 s
Fock build time:  0.20 s (CPU) 0.21 s (wall)
DIIS Errors:  Max 8.70E-06 RMS 2.02E-06

Current DIIS subspace size = 7
REM_GRID_RESTART_DIIS = 0

    7    -153.0117039793      2.02E-06  00000
Finding J and K together
 Job number = 22, Threshold = 1.00E-11
Integral type ranges set in mkLRange.C for JobNum: 22  <1-6|1-6>
 MakeJK  time:  CPU       0.19 s  wall       0.20 s
Fock build time:  0.19 s (CPU) 0.20 s (wall)
DIIS Errors:  Max 2.25E-06 RMS 4.86E-07

Current DIIS subspace size = 8
REM_GRID_RESTART_DIIS = 0

    8    -153.0117039801      4.86E-07  00000
Finding J and K together
 Job number = 22, Threshold = 1.00E-11
Integral type ranges set in mkLRange.C for JobNum: 22  <1-6|1-6>
 MakeJK  time:  CPU       0.13 s  wall       0.13 s
Fock build time:  0.13 s (CPU) 0.13 s (wall)
DIIS Errors:  Max 6.83E-07 RMS 1.07E-07

Current DIIS subspace size = 9
REM_GRID_RESTART_DIIS = 0

    9    -153.0117039801      1.07E-07  00000
Finding J and K together
 Job number = 22, Threshold = 1.00E-11
Integral type ranges set in mkLRange.C for JobNum: 22  <1-6|1-6>
 MakeJK  time:  CPU       0.14 s  wall       0.14 s
Fock build time:  0.14 s (CPU) 0.14 s (wall)
DIIS Errors:  Max 1.82E-07 RMS 2.70E-08

Current DIIS subspace size = 10
REM_GRID_RESTART_DIIS = 0

   10    -153.0117039801      2.70E-08  00000
Finding J and K together
 Job number = 22, Threshold = 1.00E-11
Integral type ranges set in mkLRange.C for JobNum: 22  <1-6|1-6>
 MakeJK  time:  CPU       0.18 s  wall       0.19 s
Fock build time:  0.18 s (CPU) 0.19 s (wall)
DIIS Errors:  Max 6.70E-08 RMS 9.64E-09

Current DIIS subspace size = 11
REM_GRID_RESTART_DIIS = 0

   11    -153.0117039801      9.64E-09  00000 Convergence criterion met
 ---------------------------------------
 SCF time:  CPU 1.93 s  wall 2.03 s
 SCF   energy in the final basis set = -153.01170398
 Total energy in the final basis set = -153.01170398
drvman_main.C: 73: calling DrvMan  Calculating analytic gradient of the SCF energy
drvman.C : 218: Calculating analytic gradient of the SCF energy
drvman.C: 244: calling SCF_Grad for normal SCF gradient
 Job number = 111, Threshold = 1.00E-11
Integral type ranges set in mkLRange.C for JobNum: 11  <1-6|7-7>
Finding J and K together
 ML is being used
 Job number = 122, Threshold = 1.00E-11
Integral type ranges set in mkLRange.C for JobNum: 22  <1-6|1-6>
 MakeJK  time:  CPU       0.44 s  wall       0.44 s
 Gradient of SCF Energy
            1           2           3           4           5           6
    1  -0.0326038   0.0334150   0.0141329   0.0044971  -0.0404801   0.0566857
    2   0.0026229  -0.0091979  -0.0077732   0.0030791   0.0385254  -0.0510704
    3   0.0108844  -0.0264195   0.0091154  -0.0047195  -0.0232222   0.0045091
            7           8           9          10
    1  -0.0263267  -0.0052157  -0.0037190  -0.0003856
    2   0.0177065   0.0035588   0.0036854  -0.0011367
    3   0.0068537   0.0105785   0.0020497   0.0103703
 Max gradient component =       5.669E-02
 RMS gradient           =       2.186E-02
drvman.C: 248: out of SCF_Grad for normal SCF gradient
 Gradient time:  CPU 0.46 s  wall 0.46 s
 ------------------------------------------------------------------------------
                     drvman        : Timing summary (seconds)
 ------------------------------------------------------------------------------
     job step          cpu (% of tot)      sys (% of tot)     wall (% of tot)
 ------------------------------------------------------------------------------
 ------------------------------------------------------------------------------
   Grand Totals     0.4600E+00          0.1000E-05          0.4611E+00
 ------------------------------------------------------------------------------
drvman_main.C: 77: out of DrvMan  Time for this dynamics step: 2.4 s (CPU) 2.5 s (wall)

TIME STEP #6 (t = 100.000 a.u. = 2.41888 fs)
--------------------------------------
 Instantaneous Temperature = 216.9 K
 ----------------------------------------------------------------
             Standard Nuclear Orientation (Angstroms)
    I     Atom           X                Y                Z
 ----------------------------------------------------------------
    1      C       3.1272698489    -0.3226308574     0.2247381811
    2      C       3.7699637668    -0.2292541704    -0.9329721380
    3      H       3.5362997807    -0.9490040069     1.0288297424
    4      H       2.2900047641     0.3236289899     0.4318775050
    5      C       4.9620287956    -0.9959366066    -1.3286115419
    6      C       5.6672060047    -1.8746723126    -0.5954188789
    7      H       6.5084359834    -2.3341061605    -1.0315295993
    8      H       5.4133978165    -2.0791589195     0.4445280265
    9      H       3.3719240114     0.4693691716    -1.6616183825
   10      H       5.3212316624    -0.8011831258    -2.3220013956
 ----------------------------------------------------------------
 Nuclear Repulsion Energy =   104.9286181215 hartrees
 There are       15 alpha and       15 beta electrons

                       Distance Matrix (Angstroms)
             C (  1)   C (  2)   H (  3)   H (  4)   C (  5)   C (  6)
   C (  2)  1.327429
   H (  3)  1.098277  2.102690
   H (  4)  1.077762  2.087767  1.878616
   C (  5)  2.496513  1.471513  2.755437  3.461255
   C (  6)  3.087518  2.533944  2.834750  4.158528  1.344255
   H (  7)  4.129955  3.455336  3.872620  5.196179  2.066478  1.053062
   H (  8)  2.891380  2.832054  2.267632  3.940702  2.126295  1.089827
   H (  9)  2.060452  1.085097  3.045868  2.361041  2.187795  3.449584
   H ( 10)  3.395344  2.159383  3.799461  4.247045  1.074141  2.062320
             H (  7)   H (  8)   H (  9)
   H (  8)  1.855493
   H (  9)  4.253727  3.885674
   H ( 10)  2.329082  3.048836  2.418721

 Applying Cartesian multipole field
    Component          Value
    ---------          -----
     (2,0,0)        1.00000E-12
     (0,2,0)        2.00000E-11
     (0,0,2)       -3.00000E-11
 Nucleus-field energy     =     0.0000000019 hartrees
 ENuRep (before)= 104.9286181215
 ENucField = 0.0000000019
 ENuRep (after) = 104.9286181235
 Job number = 2, Threshold = 1.00E-11
Integral type ranges set in mkLRange.C for JobNum: 2  <1-6|1-6>
Symmetry turned off temporarily
Symmetry turned back on
 Job number = 11, Threshold = 1.00E-11
Integral type ranges set in mkLRange.C for JobNum: 11  <1-6|7-7>
 Smallest overlap matrix eigenvalue = 1.80E-01
 Multipole matrices computed through 2nd order
 Guess from superposition of atomic densities
 Warning:  Energy on first SCF cycle will be non-variational
 SAD guess density has 30.000000 electrons
 SCF convergence criterion is 10**(-8)
 A restricted Hartree-Fock SCF calculation will be
 performed using Pulay DIIS extrapolation
 SCF converges when DIIS error is below 1.0E-08
Finding J and K together
 Job number = 22, Threshold = 1.00E-11
Integral type ranges set in mkLRange.C for JobNum: 22  <1-6|1-6>
 MakeJK  time:  CPU       0.15 s  wall       0.15 s
Fock build time:  0.15 s (CPU) 0.15 s (wall)
DIIS Errors:  Max 1.11E+00 RMS 2.14E-01

Current DIIS subspace size = 1
REM_GRID_RESTART_DIIS = 0

 ---------------------------------------
  Cycle       Energy         DIIS Error
 ---------------------------------------
    1    -152.6416695037      2.14E-01  00000
Finding J and K together
 Job number = 22, Threshold = 1.00E-11
Integral type ranges set in mkLRange.C for JobNum: 22  <1-6|1-6>
 MakeJK  time:  CPU       0.18 s  wall       0.18 s
Fock build time:  0.18 s (CPU) 0.18 s (wall)
DIIS Errors:  Max 6.21E-02 RMS 1.28E-02

Current DIIS subspace size = 2
REM_GRID_RESTART_DIIS = 0

    2    -152.9867668721      1.28E-02  00000
Finding J and K together
 Job number = 22, Threshold = 1.00E-11
Integral type ranges set in mkLRange.C for JobNum: 22  <1-6|1-6>
 MakeJK  time:  CPU       0.19 s  wall       0.19 s
Fock build time:  0.19 s (CPU) 0.19 s (wall)
DIIS Errors:  Max 1.91E-02 RMS 3.48E-03

Current DIIS subspace size = 3
REM_GRID_RESTART_DIIS = 0

    3    -153.0101284895      3.48E-03  00000
Finding J and K together
 Job number = 22, Threshold = 1.00E-11
Integral type ranges set in mkLRange.C for JobNum: 22  <1-6|1-6>
 MakeJK  time:  CPU       0.18 s  wall       0.18 s
Fock build time:  0.18 s (CPU) 0.18 s (wall)
DIIS Errors:  Max 6.65E-03 RMS 1.37E-03

Current DIIS subspace size = 4
REM_GRID_RESTART_DIIS = 0

    4    -153.0118201527      1.37E-03  00000
Finding J and K together
 Job number = 22, Threshold = 1.00E-11
Integral type ranges set in mkLRange.C for JobNum: 22  <1-6|1-6>
 MakeJK  time:  CPU       0.11 s  wall       0.12 s
Fock build time:  0.11 s (CPU) 0.12 s (wall)
DIIS Errors:  Max 6.46E-04 RMS 9.91E-05

Current DIIS subspace size = 5
REM_GRID_RESTART_DIIS = 0

    5    -153.0120125193      9.91E-05  00000
Finding J and K together
 Job number = 22, Threshold = 1.00E-11
Integral type ranges set in mkLRange.C for JobNum: 22  <1-6|1-6>
 MakeJK  time:  CPU       0.18 s  wall       0.19 s
Fock build time:  0.18 s (CPU) 0.19 s (wall)
DIIS Errors:  Max 9.53E-05 RMS 1.49E-05

Current DIIS subspace size = 6
REM_GRID_RESTART_DIIS = 0

    6    -153.0120158155      1.49E-05  00000
Finding J and K together
 Job number = 22, Threshold = 1.00E-11
Integral type ranges set in mkLRange.C for JobNum: 22  <1-6|1-6>
 MakeJK  time:  CPU       0.19 s  wall       0.19 s
Fock build time:  0.19 s (CPU) 0.19 s (wall)
DIIS Errors:  Max 1.33E-05 RMS 3.06E-06

Current DIIS subspace size = 7
REM_GRID_RESTART_DIIS = 0

    7    -153.0120158925      3.06E-06  00000
Finding J and K together
 Job number = 22, Threshold = 1.00E-11
Integral type ranges set in mkLRange.C for JobNum: 22  <1-6|1-6>
 MakeJK  time:  CPU       0.20 s  wall       0.20 s
Fock build time:  0.20 s (CPU) 0.20 s (wall)
DIIS Errors:  Max 3.28E-06 RMS 7.80E-07

Current DIIS subspace size = 8
REM_GRID_RESTART_DIIS = 0

    8    -153.0120158939      7.80E-07  00000
Finding J and K together
 Job number = 22, Threshold = 1.00E-11
Integral type ranges set in mkLRange.C for JobNum: 22  <1-6|1-6>
 MakeJK  time:  CPU       0.15 s  wall       0.15 s
Fock build time:  0.15 s (CPU) 0.15 s (wall)
DIIS Errors:  Max 5.95E-07 RMS 8.93E-08

Current DIIS subspace size = 9
REM_GRID_RESTART_DIIS = 0

    9    -153.0120158940      8.93E-08  00000
Finding J and K together
 Job number = 22, Threshold = 1.00E-11
Integral type ranges set in mkLRange.C for JobNum: 22  <1-6|1-6>
 MakeJK  time:  CPU       0.13 s  wall       0.13 s
Fock build time:  0.13 s (CPU) 0.13 s (wall)
DIIS Errors:  Max 2.03E-07 RMS 3.54E-08

Current DIIS subspace size = 10
REM_GRID_RESTART_DIIS = 0

   10    -153.0120158940      3.54E-08  00000
Finding J and K together
 Job number = 22, Threshold = 1.00E-11
Integral type ranges set in mkLRange.C for JobNum: 22  <1-6|1-6>
 MakeJK  time:  CPU       0.18 s  wall       0.18 s
Fock build time:  0.18 s (CPU) 0.18 s (wall)
DIIS Errors:  Max 5.61E-08 RMS 1.00E-08

Current DIIS subspace size = 11
REM_GRID_RESTART_DIIS = 0

   11    -153.0120158940      1.00E-08  00000
Finding J and K together
 Job number = 22, Threshold = 1.00E-11
Integral type ranges set in mkLRange.C for JobNum: 22  <1-6|1-6>
 MakeJK  time:  CPU       0.19 s  wall       0.19 s
Fock build time:  0.19 s (CPU) 0.19 s (wall)
DIIS Errors:  Max 9.56E-09 RMS 1.90E-09

Current DIIS subspace size = 12
REM_GRID_RESTART_DIIS = 0

   12    -153.0120158940      1.90E-09  00000 Convergence criterion met
 ---------------------------------------
 SCF time:  CPU 2.06 s  wall 2.08 s
 SCF   energy in the final basis set = -153.01201589
 Total energy in the final basis set = -153.01201589
drvman_main.C: 73: calling DrvMan  Calculating analytic gradient of the SCF energy
drvman.C : 218: Calculating analytic gradient of the SCF energy
drvman.C: 244: calling SCF_Grad for normal SCF gradient
 Job number = 111, Threshold = 1.00E-11
Integral type ranges set in mkLRange.C for JobNum: 11  <1-6|7-7>
Finding J and K together
 ML is being used
 Job number = 122, Threshold = 1.00E-11
Integral type ranges set in mkLRange.C for JobNum: 22  <1-6|1-6>
 MakeJK  time:  CPU       0.51 s  wall       0.55 s
 Gradient of SCF Energy
            1           2           3           4           5           6
    1  -0.0323624   0.0267801   0.0151458   0.0050228  -0.0351846   0.0521206
    2   0.0015665  -0.0054735  -0.0067421   0.0034620   0.0338065  -0.0490000
    3   0.0065482  -0.0222397   0.0084280  -0.0047813  -0.0225458   0.0060740
            7           8           9          10
    1  -0.0230668  -0.0048388  -0.0036490   0.0000322
    2   0.0159615   0.0045805   0.0029862  -0.0011478
    3   0.0047755   0.0091139   0.0038241   0.0108030
 Max gradient component =       5.212E-02
 RMS gradient           =       1.990E-02
drvman.C: 248: out of SCF_Grad for normal SCF gradient
 Gradient time:  CPU 0.53 s  wall 0.57 s
 ------------------------------------------------------------------------------
                     drvman        : Timing summary (seconds)
 ------------------------------------------------------------------------------
     job step          cpu (% of tot)      sys (% of tot)     wall (% of tot)
 ------------------------------------------------------------------------------
 ------------------------------------------------------------------------------
   Grand Totals     0.5320E+00          0.2000E-05          0.5718E+00
 ------------------------------------------------------------------------------
drvman_main.C: 77: out of DrvMan  Time for this dynamics step: 2.6 s (CPU) 2.7 s (wall)

TIME STEP #7 (t = 120.000 a.u. = 2.90266 fs)
--------------------------------------
 Instantaneous Temperature = 223.2 K
 ----------------------------------------------------------------
             Standard Nuclear Orientation (Angstroms)
    I     Atom           X                Y                Z
 ----------------------------------------------------------------
    1      C       3.1260538957    -0.3214434661     0.2227400736
    2      C       3.7647791125    -0.2285014226    -0.9326823551
    3      H       3.5480041578    -0.9347154249     1.0272679054
    4      H       2.2913676591     0.3273806887     0.4340976673
    5      C       4.9651114551    -0.9979602087    -1.3261733754
    6      C       5.6683593157    -1.8759651375    -0.5958939046
    7      H       6.5169770339    -2.3346665500    -1.0369855620
    8      H       5.4181758745    -2.0793105235     0.4421882532
    9      H       3.3639236606     0.4657875652    -1.6611509302
   10      H       5.3286194689    -0.7985426624    -2.3183654752
 ----------------------------------------------------------------
 Nuclear Repulsion Energy =   104.9001463739 hartrees
 There are       15 alpha and       15 beta electrons

                       Distance Matrix (Angstroms)
             C (  1)   C (  2)   H (  3)   H (  4)   C (  5)   C (  6)
   C (  2)  1.323484
   H (  3)  1.096088  2.094549
   H (  4)  1.078121  2.085194  1.877198
   C (  5)  2.497787  1.479087  2.747886  3.464677
   C (  6)  3.090310  2.539917  2.831344  4.161693  1.341178
   H (  7)  4.139847  3.467190  3.877603  5.206376  2.068502  1.060717
   H (  8)  2.896908  2.837161  2.269352  3.945777  2.121718  1.086994
   H (  9)  2.055568  1.083231  3.036921  2.357880  2.195124  3.453839
   H ( 10)  3.396489  2.165793  3.792413  4.250724  1.075337  2.059896
             H (  7)   H (  8)   H (  9)
   H (  8)  1.860249
   H (  9)  4.263082  3.888639
   H ( 10)  2.326758  3.044510  2.427033

 Applying Cartesian multipole field
    Component          Value
[...]
Fock build time:  0.12 s (CPU) 0.12 s (wall)
DIIS Errors:  Max 5.40E-08 RMS 8.55E-09

Current DIIS subspace size = 7
REM_GRID_RESTART_DIIS = 0

    7    -153.0086281528      8.55E-09  00000 Convergence criterion met
 ---------------------------------------
 SCF time:  CPU 0.71 s  wall 0.71 s
 SCF   energy in the final basis set = -153.00862815
 Total energy in the final basis set = -153.00862815
drvman_main.C: 73: calling DrvMan  Calculating analytic gradient of the SCF energy
drvman.C : 218: Calculating analytic gradient of the SCF energy
drvman.C: 244: calling SCF_Grad for normal SCF gradient
 Job number = 111, Threshold = 1.00E-11
Integral type ranges set in mkLRange.C for JobNum: 11  <1-6|7-7>
Finding J and K together
 ML is being used
 Job number = 122, Threshold = 1.00E-11
Integral type ranges set in mkLRange.C for JobNum: 22  <1-6|1-6>
 MakeJK  time:  CPU       0.35 s  wall       0.36 s
 Gradient of SCF Energy
            1           2           3           4           5           6
    1   0.0318618   0.0000751  -0.0134061  -0.0030629   0.0069098  -0.0198425
    2   0.0084263  -0.0182755  -0.0023661  -0.0060308   0.0036766   0.0060206
    3  -0.0124716   0.0212927   0.0010875   0.0035762   0.0202570  -0.0275575
            7           8           9          10
    1  -0.0193306   0.0053638   0.0082876   0.0031440
    2   0.0101557  -0.0007240  -0.0011013   0.0002185
    3   0.0026671   0.0036909  -0.0063576  -0.0061848
 Max gradient component =       3.186E-02
 RMS gradient           =       1.241E-02
drvman.C: 248: out of SCF_Grad for normal SCF gradient
 Gradient time:  CPU 0.37 s  wall 0.38 s
 ------------------------------------------------------------------------------
                     drvman        : Timing summary (seconds)
 ------------------------------------------------------------------------------
     job step          cpu (% of tot)      sys (% of tot)     wall (% of tot)
 ------------------------------------------------------------------------------
 ------------------------------------------------------------------------------
   Grand Totals     0.3680E+00          0.2000E-05          0.3799E+00
 ------------------------------------------------------------------------------
drvman_main.C: 77: out of DrvMan  Time for this dynamics step: 1.1 s (CPU) 1.1 s (wall)

TIME STEP #399 (t = 7960.000 a.u. = 192.54319 fs)
--------------------------------------
 Instantaneous Temperature = 151.4 K
 ----------------------------------------------------------------
             Standard Nuclear Orientation (Angstroms)
    I     Atom           X                Y                Z
 ----------------------------------------------------------------
    1      C       3.1053859200    -0.1835075935     0.0332527680
    2      C       3.7234779054    -0.4784022239    -1.0750669042
    3      H       3.1820452303    -0.7639923249     0.9468637014
    4      H       2.2808921130     0.5088970221     0.0565278713
    5      C       4.8571293459    -1.3963696314    -1.2141250267
    6      C       5.8405318803    -1.3937398686    -0.3753506939
    7      H       6.6510146943    -2.0499078091    -0.5131902316
    8      H       5.8819168729    -0.7898256219     0.5279268544
    9      H       3.5189773600     0.0580463687    -2.0005352496
   10      H       4.9257734007    -1.9821198946    -2.1391104582
 ----------------------------------------------------------------
 Nuclear Repulsion Energy =   106.5184068887 hartrees
 There are       15 alpha and       15 beta electrons

                       Distance Matrix (Angstroms)
             C (  1)   C (  2)   H (  3)   H (  4)   C (  5)   C (  6)
   C (  2)  1.302833
   H (  3)  1.085138  2.112561
   H (  4)  1.076920  2.082383  1.795835
   C (  5)  2.468925  1.465321  2.806364  3.446969
   C (  6)  3.018715  2.410262  3.035191  4.059259  1.292528
   H (  7)  4.043950  3.369838  3.977321  5.096080  2.033826  1.051874
   H (  8)  2.884692  2.706554  2.732303  3.856978  2.110173  1.087353
   H (  9)  2.089426  1.089077  3.078381  2.442873  2.127068  3.184105
   H ( 10)  3.356781  2.199743  3.748021  4.245161  1.097002  2.072154
             H (  7)   H (  8)   H (  9)
   H (  8)  1.806445
   H (  9)  4.057749  3.563073
   H ( 10)  2.371639  3.073900  2.482047

 Applying Cartesian multipole field
    Component          Value
    ---------          -----
     (2,0,0)        1.00000E-12
     (0,2,0)        2.00000E-11
     (0,0,2)       -3.00000E-11
 Nucleus-field energy     =     0.0000000018 hartrees
 ENuRep (before)= 106.5184068887
 ENucField = 0.0000000018
 ENuRep (after) = 106.5184068905
 Job number = 2, Threshold = 1.00E-11
Integral type ranges set in mkLRange.C for JobNum: 2  <1-6|1-6>
Symmetry turned off temporarily
Symmetry turned back on
 Job number = 11, Threshold = 1.00E-11
Integral type ranges set in mkLRange.C for JobNum: 11  <1-6|7-7>
 Smallest overlap matrix eigenvalue = 1.66E-01
 Multipole matrices computed through 2nd order
 Extrapolating the Fock matrix using 12 points and a 6th-order polynomial
 Alpha Fock matrix extrapolation
 Skip SCF guess (diagonalize extrapolated Fock matrix instead)
 SCF convergence criterion is 10**(-8)
 A restricted Hartree-Fock SCF calculation will be
 performed using Pulay DIIS extrapolation
 SCF converges when DIIS error is below 1.0E-08
Extrapolated Fock matrix used in lieu of Fock build
Fock build time:  0.00 s (CPU) 0.00 s (wall)
DIIS Errors:  Max 1.50E-02 RMS 1.80E-03

Current DIIS subspace size = 1
REM_GRID_RESTART_DIIS = 0

 ---------------------------------------
  Cycle       Energy         DIIS Error
 ---------------------------------------
    1    -310.7421158391      1.80E-03  00000
Finding J and K together
 Job number = 22, Threshold = 1.00E-11
Integral type ranges set in mkLRange.C for JobNum: 22  <1-6|1-6>
 MakeJK  time:  CPU       0.11 s  wall       0.11 s
Fock build time:  0.11 s (CPU) 0.11 s (wall)
DIIS Errors:  Max 1.09E-03 RMS 9.82E-05

Current DIIS subspace size = 2
REM_GRID_RESTART_DIIS = 0

    2    -153.0079889093      9.82E-05  00000
Finding J and K together
 Job number = 22, Threshold = 1.00E-11
Integral type ranges set in mkLRange.C for JobNum: 22  <1-6|1-6>
 MakeJK  time:  CPU       0.11 s  wall       0.11 s
Fock build time:  0.11 s (CPU) 0.11 s (wall)
DIIS Errors:  Max 6.35E-05 RMS 6.30E-06

Current DIIS subspace size = 3
REM_GRID_RESTART_DIIS = 0

    3    -153.0079890660      6.30E-06  00000
Finding J and K together
 Job number = 22, Threshold = 1.00E-11
Integral type ranges set in mkLRange.C for JobNum: 22  <1-6|1-6>
 MakeJK  time:  CPU       0.12 s  wall       0.11 s
Fock build time:  0.12 s (CPU) 0.11 s (wall)
DIIS Errors:  Max 4.66E-06 RMS 6.68E-07

Current DIIS subspace size = 4
REM_GRID_RESTART_DIIS = 0

    4    -153.0079890674      6.68E-07  00000
Finding J and K together
 Job number = 22, Threshold = 1.00E-11
Integral type ranges set in mkLRange.C for JobNum: 22  <1-6|1-6>
 MakeJK  time:  CPU       0.11 s  wall       0.11 s
Fock build time:  0.11 s (CPU) 0.11 s (wall)
DIIS Errors:  Max 2.15E-06 RMS 3.34E-07

Current DIIS subspace size = 5
REM_GRID_RESTART_DIIS = 0

    5    -153.0079890675      3.34E-07  00000
Finding J and K together
 Job number = 22, Threshold = 1.00E-11
Integral type ranges set in mkLRange.C for JobNum: 22  <1-6|1-6>
 MakeJK  time:  CPU       0.12 s  wall       0.11 s
Fock build time:  0.12 s (CPU) 0.11 s (wall)
DIIS Errors:  Max 4.07E-07 RMS 6.67E-08

Current DIIS subspace size = 6
REM_GRID_RESTART_DIIS = 0

    6    -153.0079890675      6.67E-08  00000
Finding J and K together
 Job number = 22, Threshold = 1.00E-11
Integral type ranges set in mkLRange.C for JobNum: 22  <1-6|1-6>
 MakeJK  time:  CPU       0.12 s  wall       0.12 s
Fock build time:  0.12 s (CPU) 0.12 s (wall)
DIIS Errors:  Max 1.51E-07 RMS 2.75E-08

Current DIIS subspace size = 7
REM_GRID_RESTART_DIIS = 0

    7    -153.0079890675      2.75E-08  00000
Finding J and K together
 Job number = 22, Threshold = 1.00E-11
Integral type ranges set in mkLRange.C for JobNum: 22  <1-6|1-6>
 MakeJK  time:  CPU       0.18 s  wall       0.19 s
Fock build time:  0.19 s (CPU) 0.19 s (wall)
DIIS Errors:  Max 3.63E-08 RMS 6.60E-09

Current DIIS subspace size = 8
REM_GRID_RESTART_DIIS = 0

    8    -153.0079890675      6.60E-09  00000 Convergence criterion met
 ---------------------------------------
 SCF time:  CPU 0.87 s  wall 0.88 s
 SCF   energy in the final basis set = -153.00798907
 Total energy in the final basis set = -153.00798907
drvman_main.C: 73: calling DrvMan  Calculating analytic gradient of the SCF energy
drvman.C : 218: Calculating analytic gradient of the SCF energy
drvman.C: 244: calling SCF_Grad for normal SCF gradient
 Job number = 111, Threshold = 1.00E-11
Integral type ranges set in mkLRange.C for JobNum: 11  <1-6|7-7>
Finding J and K together
 ML is being used
 Job number = 122, Threshold = 1.00E-11
Integral type ranges set in mkLRange.C for JobNum: 22  <1-6|1-6>
 MakeJK  time:  CPU       0.48 s  wall       0.48 s
 Gradient of SCF Energy
            1           2           3           4           5           6
    1   0.0287402   0.0024238  -0.0126687  -0.0004523   0.0019268  -0.0096840
    2   0.0133763  -0.0196425  -0.0041662  -0.0087511   0.0081092  -0.0017384
    3  -0.0123541   0.0197656   0.0018400   0.0022689   0.0257675  -0.0305320
            7           8           9          10
    1  -0.0267270   0.0042241   0.0079324   0.0042846
    2   0.0153849   0.0016209  -0.0011507  -0.0030421
    3   0.0031063   0.0064987  -0.0050791  -0.0112817
 Max gradient component =       3.053E-02
 RMS gradient           =       1.321E-02
drvman.C: 248: out of SCF_Grad for normal SCF gradient
 Gradient time:  CPU 0.50 s  wall 0.50 s
 ------------------------------------------------------------------------------
                     drvman        : Timing summary (seconds)
 ------------------------------------------------------------------------------
     job step          cpu (% of tot)      sys (% of tot)     wall (% of tot)
 ------------------------------------------------------------------------------
 ------------------------------------------------------------------------------
   Grand Totals     0.5040E+00          0.2000E-05          0.4997E+00
 ------------------------------------------------------------------------------
drvman_main.C: 77: out of DrvMan  Time for this dynamics step: 1.4 s (CPU) 1.4 s (wall)

TIME STEP #400 (t = 7980.000 a.u. = 193.02697 fs)
--------------------------------------
 Instantaneous Temperature = 138.3 K
 ----------------------------------------------------------------
             Standard Nuclear Orientation (Angstroms)
    I     Atom           X                Y                Z
 ----------------------------------------------------------------
    1      C       3.1039981404    -0.1817764059     0.0322302303
    2      C       3.7247292034    -0.4791723394    -1.0747032270
    3      H       3.1812715826    -0.7680932461     0.9436126135
    4      H       2.2782539099     0.5039252682     0.0445621337
    5      C       4.8546214679    -1.3972172187    -1.2108382663
    6      C       5.8438123017    -1.3933102783    -0.3763374896
    7      H       6.6482350689    -2.0472674532    -0.5203113964
    8      H       5.8793180999    -0.7871210188     0.5290659755
    9      H       3.5175130653     0.0580699272    -1.9971106580
   10      H       4.9284545030    -1.9848820064    -2.1408764311
 ----------------------------------------------------------------
 Nuclear Repulsion Energy =   106.5331849768 hartrees
 There are       15 alpha and       15 beta electrons

                       Distance Matrix (Angstroms)
             C (  1)   C (  2)   H (  3)   H (  4)   C (  5)   C (  6)
   C (  2)  1.303477
   H (  3)  1.086442  2.110076
   H (  4)  1.073402  2.076422  1.800490
   C (  5)  2.467225  1.462189  2.799563  3.439192
   C (  6)  3.023462  2.411198  3.036822  4.060772  1.294181
   H (  7)  4.043139  3.363504  3.974820  5.091601  2.028902  1.046654
   H (  8)  2.883694  2.703546  2.729774  3.856061  2.109381  1.090175
   H (  9)  2.084885  1.087384  3.073021  2.429605  2.126956  3.185134
   H ( 10)  3.361878  2.202917  3.747972  4.241918  1.102621  2.073990
             H (  7)   H (  8)   H (  9)
   H (  8)  1.811186
   H (  9)  4.051518  3.560062
   H ( 10)  2.363846  3.076908  2.486981

 Applying Cartesian multipole field
    Component          Value
    ---------          -----
     (2,0,0)        1.00000E-12
     (0,2,0)        2.00000E-11
     (0,0,2)       -3.00000E-11
 Nucleus-field energy     =     0.0000000018 hartrees
 ENuRep (before)= 106.5331849768
 ENucField = 0.0000000018
 ENuRep (after) = 106.5331849787
 Job number = 2, Threshold = 1.00E-11
Integral type ranges set in mkLRange.C for JobNum: 2  <1-6|1-6>
Symmetry turned off temporarily
Symmetry turned back on
 Job number = 11, Threshold = 1.00E-11
Integral type ranges set in mkLRange.C for JobNum: 11  <1-6|7-7>
 Smallest overlap matrix eigenvalue = 1.66E-01
 Multipole matrices computed through 2nd order
 Extrapolating the Fock matrix using 12 points and a 6th-order polynomial
 Alpha Fock matrix extrapolation
 Skip SCF guess (diagonalize extrapolated Fock matrix instead)
 SCF convergence criterion is 10**(-8)
 A restricted Hartree-Fock SCF calculation will be
 performed using Pulay DIIS extrapolation
 SCF converges when DIIS error is below 1.0E-08
Extrapolated Fock matrix used in lieu of Fock build
Fock build time:  0.00 s (CPU) 0.00 s (wall)
DIIS Errors:  Max 1.02E-02 RMS 1.48E-03

Current DIIS subspace size = 1
REM_GRID_RESTART_DIIS = 0

 ---------------------------------------
  Cycle       Energy         DIIS Error
 ---------------------------------------
    1    -310.7484314744      1.48E-03  00000
Finding J and K together
 Job number = 22, Threshold = 1.00E-11
Integral type ranges set in mkLRange.C for JobNum: 22  <1-6|1-6>
 MakeJK  time:  CPU       0.18 s  wall       0.18 s
Fock build time:  0.18 s (CPU) 0.18 s (wall)
DIIS Errors:  Max 1.46E-03 RMS 1.57E-04

Current DIIS subspace size = 2
REM_GRID_RESTART_DIIS = 0

    2    -153.0074087296      1.57E-04  00000
Finding J and K together
 Job number = 22, Threshold = 1.00E-11
Integral type ranges set in mkLRange.C for JobNum: 22  <1-6|1-6>
 MakeJK  time:  CPU       0.18 s  wall       0.18 s
Fock build time:  0.18 s (CPU) 0.18 s (wall)
DIIS Errors:  Max 1.07E-04 RMS 1.22E-05

Current DIIS subspace size = 3
REM_GRID_RESTART_DIIS = 0

    3    -153.0074091316      1.22E-05  00000
Finding J and K together
 Job number = 22, Threshold = 1.00E-11
Integral type ranges set in mkLRange.C for JobNum: 22  <1-6|1-6>
 MakeJK  time:  CPU       0.11 s  wall       0.11 s
Fock build time:  0.11 s (CPU) 0.11 s (wall)
DIIS Errors:  Max 5.75E-06 RMS 9.29E-07

Current DIIS subspace size = 4
REM_GRID_RESTART_DIIS = 0

    4    -153.0074091358      9.29E-07  00000
Finding J and K together
 Job number = 22, Threshold = 1.00E-11
Integral type ranges set in mkLRange.C for JobNum: 22  <1-6|1-6>
 MakeJK  time:  CPU       0.11 s  wall       0.11 s
Fock build time:  0.11 s (CPU) 0.11 s (wall)
DIIS Errors:  Max 2.72E-06 RMS 4.52E-07

Current DIIS subspace size = 5
REM_GRID_RESTART_DIIS = 0

    5    -153.0074091360      4.52E-07  00000
Finding J and K together
 Job number = 22, Threshold = 1.00E-11
Integral type ranges set in mkLRange.C for JobNum: 22  <1-6|1-6>
 MakeJK  time:  CPU       0.11 s  wall       0.11 s
Fock build time:  0.11 s (CPU) 0.11 s (wall)
DIIS Errors:  Max 3.70E-07 RMS 6.40E-08

Current DIIS subspace size = 6
REM_GRID_RESTART_DIIS = 0

    6    -153.0074091360      6.40E-08  00000
Finding J and K together
 Job number = 22, Threshold = 1.00E-11
Integral type ranges set in mkLRange.C for JobNum: 22  <1-6|1-6>
 MakeJK  time:  CPU       0.11 s  wall       0.11 s
Fock build time:  0.11 s (CPU) 0.11 s (wall)
DIIS Errors:  Max 1.46E-07 RMS 2.56E-08

Current DIIS subspace size = 7
REM_GRID_RESTART_DIIS = 0

    7    -153.0074091360      2.56E-08  00000
Finding J and K together
 Job number = 22, Threshold = 1.00E-11
Integral type ranges set in mkLRange.C for JobNum: 22  <1-6|1-6>
 MakeJK  time:  CPU       0.11 s  wall       0.11 s
Fock build time:  0.11 s (CPU) 0.11 s (wall)
DIIS Errors:  Max 5.25E-08 RMS 9.63E-09

Current DIIS subspace size = 8
REM_GRID_RESTART_DIIS = 0

    8    -153.0074091360      9.63E-09  00000 Convergence criterion met
 ---------------------------------------
 SCF time:  CPU 0.92 s  wall 0.92 s
 SCF   energy in the final basis set = -153.00740914
 Total energy in the final basis set = -153.00740914
drvman_main.C: 73: calling DrvMan  Calculating analytic gradient of the SCF energy
drvman.C : 218: Calculating analytic gradient of the SCF energy
drvman.C: 244: calling SCF_Grad for normal SCF gradient
 Job number = 111, Threshold = 1.00E-11
Integral type ranges set in mkLRange.C for JobNum: 11  <1-6|7-7>
Finding J and K together
 ML is being used
 Job number = 122, Threshold = 1.00E-11
Integral type ranges set in mkLRange.C for JobNum: 22  <1-6|1-6>
 MakeJK  time:  CPU       0.32 s  wall       0.32 s
 Gradient of SCF Energy
            1           2           3           4           5           6
    1   0.0253793   0.0049979  -0.0117486   0.0018824  -0.0035163  -0.0014424
    2   0.0177677  -0.0208040  -0.0057944  -0.0109971   0.0117253  -0.0069547
    3  -0.0114251   0.0173446   0.0022263   0.0008991   0.0295749  -0.0317504
            7           8           9          10
    1  -0.0313591   0.0029232   0.0075610   0.0053227
    2   0.0184835   0.0034632  -0.0013591  -0.0055303
    3   0.0031154   0.0084836  -0.0033600  -0.0151084
 Max gradient component =       3.175E-02
 RMS gradient           =       1.416E-02
drvman.C: 248: out of SCF_Grad for normal SCF gradient
 Gradient time:  CPU 0.33 s  wall 0.33 s
 ------------------------------------------------------------------------------
                     drvman        : Timing summary (seconds)
 ------------------------------------------------------------------------------
     job step          cpu (% of tot)      sys (% of tot)     wall (% of tot)
 ------------------------------------------------------------------------------
 ------------------------------------------------------------------------------
   Grand Totals     0.3320E+00          0.0000E+00          0.3316E+00
 ------------------------------------------------------------------------------
drvman_main.C: 77: out of DrvMan  Time for this dynamics step: 1.3 s (CPU) 1.3 s (wall)

=============== TIME STEPS COMPLETED ==================

Step-to-Step energy fluctuations, |E(n) - E(n-1)|
Mean: 6.528e-08   Max: 1.888e-05   RMS: 8.226e-06
Overall energy fluctuations, |E(n) - E(0)|
Mean: 2.241e-05   Max: 5.443e-05   RMS: 1.392e-05   RMS(dE)/RMS(dV): 7.574e-03
Kinetic energy fluctuations, |T(n) - V(0)|
Mean: -3.769e-03   Max: 7.486e-03   RMS: 1.830e-03
Potential energy fluctuations, |V(n) - V(0)|
Mean: 3.792e-03   Max: 7.522e-03   RMS: 1.838e-03


 JobOver = TRUE
Archival summary:
1\1\qciep03\JobtypUnspecified\HF\STO-3G\46\jcartus\MonJun1812:57:502018MonJun1812:57:502018\0\\#,JobtypUnspecified,HF,STO-3G,\\0,1\C\H,1,1.08738\C,1,1.30348,2,121.125\H,3,1.0734,1,121.456,2,8.50623,0\H,3,1.08644,1,123.737,2,171.857,0\C,1,1.46219,2,112.24,3,-172.7,0\H,6,1.10262,1,117.704,2,-41.3294,0\C,6,1.29418,1,121.918,2,128.682,0\H,8,1.04665,6,119.792,1,-178.329,0\H,8,1.09017,6,124.201,1,5.77892,0\\HF=-153.007409\\@

 Total job time:  632.66s(wall), 620.37s(cpu) 
 Mon Jun 18 12:57:50 2018

        *************************************************************
        *                                                           *
        *  Thank you very much for using Q-Chem.  Have a nice day.  *
        *                                                           *
        *************************************************************


*** MISSION COMPLETED -- STARFLEET OUT ***

0 sent ACK to 0 
now end server 0 ... 
