Process 0 of 1 is on qciep03 - thread support 0
initial socket setup ...start
initial socket setup ...done 
now start server 0 ... 
qciep03.tugraz.at 127.0.1
Q-Chem Developer Version! Running on 127.0.1.*
                  Welcome to Q-Chem
     A Quantum Leap Into The Future Of Chemistry


 Q-Chem 5.0, Q-Chem, Inc., Pleasanton, CA (2017)

 Yihan Shao,  Zhengting Gan,  E. Epifanovsky,  A. T. B. Gilbert,  M. Wormit,  
 J. Kussmann,  A. W. Lange,  A. Behn,  Jia Deng,  Xintian Feng,  D. Ghosh,  
 M. Goldey,  P. R. Horn,  L. D. Jacobson,  I. Kaliman,  T. Kus,  A. Landau,  
 Jie Liu,  E. I. Proynov,  R. M. Richard,  R. P. Steele,  E. J. Sundstrom,  
 H. L. Woodcock III,  P. M. Zimmerman,  D. Zuev,  B. Albrecht,  E. Alguire,  
 S. A. Baeppler,  D. Barton,  Z. Benda,  Y. A. Bernard,  E. J. Berquist,  
 K. B. Bravaya,  H. Burton,  D. Casanova,  Chun-Min Chang,  Yunqing Chen,  
 A. Chien,  K. D. Closser,  M. P. Coons,  S. Dasgupta,  A. L. Dempwolff,  
 M. Diedenhofen,  Hainam Do,  R. G. Edgar,  Po-Tung Fang,  S. Fatehi,  
 Qingguo Feng,  J. Fosso-Tande,  Qinghui Ge,  A. Ghysels,  G. Gidofalvi,  
 J. Gomes,  J. Gonthier,  A. Gunina,  M. W. D. Hanson-Heine,  
 P. H. P. Harbach,  A. W. Hauser,  J. E. Herr,  E. G. Hohenstein,  
 Z. C. Holden,  Kerwin Hui,  T.-C. Jagau,  Hyunjun Ji,  B. Kaduk,  
 K. Khistyaev,  Jaehoon Kim,  P. Klunzinger,  K. Koh,  D. Kosenkov,  
 L. Koulias,  T. Kowalczyk,  C. M. Krauter,  A. Kunitsa,  Ka Un Lao,  
 A. Laurent,  K. V. Lawler,  Joonho Lee,  D. Lefrancois,  S. Lehtola,  
 D. S. Levine,  Yi-Pei Li,  You-Sheng Lin,  Fenglai Liu,  E. Livshits,  
 A. Luenser,  P. Manohar,  E. Mansoor,  S. F. Manzer,  Shan-Ping Mao,  
 Yuezhi Mao,  N. Mardirossian,  A. V. Marenich,  T. Markovich,  
 L. A. Martinez-Martinez,  S. A. Maurer,  N. J. Mayhall,  S. C. McKenzie,  
 J.-M. Mewes,  A. F. Morrison,  J. W. Mullinax,  K. Nanda,  
 T. S. Nguyen-Beck,  R. Olivares-Amaya,  J. A. Parkhill,  T. M. Perrine,  
 F. Plasser,  S. Prager,  A. Prociuk,  E. Ramos,  D. R. Rehn,  F. Rob,  
 M. Schneider,  N. Sergueev,  S. M. Sharada,  S. Sharma,  D. W. Small,  
 T. Stauch,  T. Stein,  Yu-Chuan Su,  A. J. W. Thom,  A. Tkatchenko,  
 T. Tsuchimochi,  L. Vogt,  O. Vydrov,  M. A. Watson,  J. Wenzel,  
 M. de Wergifosse,  T. A. Wesolowski,  A. White,  J. Witte,  A. Yamada,  
 Jun Yang,  K. Yao,  S. Yeganeh,  S. R. Yost,  Zhi-Qiang You,  A. Zech,  
 Igor Ying Zhang,  Xing Zhang,  Yan Zhao,  Ying Zhu,  B. R. Brooks,  
 G. K. L. Chan,  C. J. Cramer,  M. S. Gordon,  W. J. Hehre,  A. Klamt,  
 M. W. Schmidt,  C. D. Sherrill,  D. G. Truhlar,  A. Aspuru-Guzik,  R. Baer,  
 A. T. Bell,  N. A. Besley,  Jeng-Da Chai,  R. A. DiStasio Jr.,  A. Dreuw,  
 B. D. Dunietz,  T. R. Furlani,  Chao-Ping Hsu,  Yousung Jung,  Jing Kong,  
 D. S. Lambrecht,  WanZhen Liang,  C. Ochsenfeld,  V. A. Rassolov,  
 L. V. Slipchenko,  J. E. Subotnik,  T. Van Voorhis,  J. M. Herbert,  
 A. I. Krylov,  P. M. W. Gill,  M. Head-Gordon

 Contributors to earlier versions of Q-Chem not listed above: 
 R. D. Adamson,  B. Austin,  J. Baker,  G. J. O. Beran,  K. Brandhorst,  
 S. T. Brown,  E. F. C. Byrd,  A. K. Chakraborty,  C.-L. Cheng,  
 Siu Hung Chien,  D. M. Chipman,  D. L. Crittenden,  H. Dachsel,  
 R. J. Doerksen,  A. D. Dutoi,  L. Fusti-Molnar,  W. A. Goddard III,  
 A. Golubeva-Zadorozhnaya,  S. R. Gwaltney,  G. Hawkins,  A. Heyden,  
 S. Hirata,  G. Kedziora,  F. J. Keil,  C. Kelley,  Jihan Kim,  R. A. King,  
 R. Z. Khaliullin,  P. P. Korambath,  W. Kurlancheek,  A. M. Lee,  M. S. Lee,  
 S. V. Levchenko,  Ching Yeh Lin,  D. Liotard,  R. C. Lochan,  I. Lotan,  
 P. E. Maslen,  N. Nair,  D. P. O'Neill,  D. Neuhauser,  E. Neuscamman,  
 C. M. Oana,  R. Olson,  B. Peters,  R. Peverati,  P. A. Pieniazek,  
 Y. M. Rhee,  J. Ritchie,  M. A. Rohrdanz,  E. Rosta,  N. J. Russ,  
 H. F. Schaefer III,  N. E. Schultz,  N. Shenvi,  A. C. Simmonett,  A. Sodt,  
 D. Stuck,  K. S. Thanthiriwatte,  V. Vanovschi,  Tao Wang,  A. Warshel,  
 C. F. Williams,  Q. Wu,  X. Xu,  W. Zhang

 Please cite Q-Chem as follows:
 Y. Shao et al., Mol. Phys. 113, 184-215 (2015)
 DOI: 10.1080/00268976.2014.952696

 Q-Chem 5.0.2 for Intel X86 EM64T Linux

 Parts of Q-Chem use Armadillo 5.200.1 (Boston Tea Smuggler).
 http://arma.sourceforge.net/

 Q-Chem begins on Mon Jun 18 12:23:38 2018  


Host: 0

     Scratch files written to /home/jcartus/scratch/Butadien_16.mol.dir//
 Using version located at /usr/local/qchem/bin/qchem

 Parallel job on  1  processors
Symmetry disabled for AIMD jobs.

Total Memory Limit in MB = 2000
Mega-Array Size in MB = 192

Checking the input file for inconsistencies... 	...done.
Finally everything over in PARseQInput

--------------------------------------------------------------
User input:
--------------------------------------------------------------
$rem
AIMD_STEPS                    400
FOCK_EXTRAP_POINTS            12
MAX_SCF_CYCLES                100
BASIS                         sto-3g
AIMD_INIT_VELOC               thermal
FOCK_EXTRAP_ORDER             6
AIMD_TEMP                     400
AIMD_METHOD                   bomd
TIME_STEP                     20
METHOD                        hf
JOBTYPE                       aimd
$end

$molecule
0 1
C    8.50377    -2.01399    0.73808
C    7.45957    -1.30100    0.13781
H    9.32890    -1.63359    1.57483
H    8.28004    -3.04465    0.28318
C    4.58255    -1.83145    -0.37568
C    3.65685    -1.26748    -1.24486
H    3.48401    -0.30695    -1.54356
H    3.24528    -1.95349    -1.94274
H    7.65677    -0.39400    0.90053
H    3.99778    -2.58473    0.29466
$end


--------------------------------------------------------------
 ----------------------------------------------------------------
             Standard Nuclear Orientation (Angstroms)
    I     Atom           X                Y                Z
 ----------------------------------------------------------------
    1      C       8.5037700000    -2.0139900000     0.7380800000
    2      C       7.4595700000    -1.3010000000     0.1378100000
    3      H       9.3289000000    -1.6335900000     1.5748300000
    4      H       8.2800400000    -3.0446500000     0.2831800000
    5      C       4.5825500000    -1.8314500000    -0.3756800000
    6      C       3.6568500000    -1.2674800000    -1.2448600000
    7      H       3.4840100000    -0.3069500000    -1.5435600000
    8      H       3.2452800000    -1.9534900000    -1.9427400000
    9      H       7.6567700000    -0.3940000000     0.9005300000
   10      H       3.9977800000    -2.5847300000     0.2946600000
 ----------------------------------------------------------------
 Nuclear Repulsion Energy =    83.1329618613 hartrees
 There are       15 alpha and       15 beta electrons
 Requested basis set is STO-3G
 There are 14 shells and 26 basis functions

 Total QAlloc Memory Limit   2000 MB
 Mega-Array Size       188 MB
 MEM_STATIC part       192 MB

finished with qalloc call

                       Distance Matrix (Angstroms)
             C (  1)   C (  2)   H (  3)   H (  4)   C (  5)   C (  6)
   C (  2)  1.399654
   H (  3)  1.235190  2.381184
   H (  4)  1.148586  1.932516  2.181641
   C (  5)  4.080410  2.970235  5.135317  3.946819
   C (  6)  5.289798  4.046428  6.344828  5.183351  1.389409
   H (  7)  5.772162  4.429472  6.756261  5.816690  2.212427  1.020644
   H (  8)  5.902726  4.744963  7.034633  5.611966  2.063701  1.061620
   H (  9)  1.835257  1.201365  2.187986  2.792048  3.625714  4.622232
   H ( 10)  4.563585  3.695478  5.564561  4.306902  1.165651  2.054630
             H (  7)   H (  8)   H (  9)
   H (  8)  1.710974
   H (  9)  4.836639  5.475166
   H ( 10)  2.971749  2.443497  4.307503

 Job number = 2, Threshold = 1.00E-11
Integral type ranges set in mkLRange.C for JobNum: 2  <1-6|1-6>
Symmetry turned off temporarily
 Using the largest function pair in Schwarz integrals
Total number of integrals generated =            3250
Symmetry turned back on
 A cutoff of  1.0D-11 yielded    100 shell pairs
 There are       370 function pairs
 Job number = 11, Threshold = 1.00E-11
Integral type ranges set in mkLRange.C for JobNum: 11  <1-6|7-7>
Total number of integrals generated =            3700
 Smallest overlap matrix eigenvalue = 2.11E-01
 Multipole matrices computed through 2nd order

 Scale SEOQF with 1.000000e-02/1.000000e-01/1.000000e-01

 Standard Electronic Orientation quadrupole field applied
 Nucleus-field energy     =     0.0000000081 hartrees
 ENuRep (before)= 83.1329618613
 ENucField = 0.0000000081
 ENuRep (after) = 83.1329618694
 Guess from superposition of atomic densities
 Warning:  Energy on first SCF cycle will be non-variational
 SAD guess density has 30.000000 electrons

 ==================================================
    GEN_SCFMAN: A general SCF calculation manager  
                                                   
    Authors:                                       
        -- Eric Jon Sundstrom 2008-2014            
        -- Paul Horn 2010-2015                     
        -- Yuezhi Mao 2012-                        
        -- Dmitri Zuev 2014                        
        -- Alec White 2015-                        
        -- David Stuck 2015                        
        -- Shaama M.S. 2015                        
        -- Shane Yost 2015-                         
        -- Joonho Lee 2016-                        
        -- David Small 2016-                       
        -- Daniel Levine 2016-                     
        -- Susi Lehtola 2017-                      
        -- Hugh Burton 2017-                       
 ==================================================
 Hartree-Fock
Finding J and K together
 Job number = 22, Threshold = 1.00E-11
Integral type ranges set in mkLRange.C for JobNum: 22  <1-6|1-6>
 MakeJK  time:  CPU       0.13 s  wall       0.13 s
 A restricted SCF calculation will be
 performed using DIIS
 SCF converges when DIIS error is below 1.0e-08
 ---------------------------------------
  Cycle       Energy         DIIS error
 ---------------------------------------
Finding J and K together
 Job number = 22, Threshold = 1.00E-11
Integral type ranges set in mkLRange.C for JobNum: 22  <1-6|1-6>
 MakeJK  time:  CPU       0.16 s  wall       0.17 s
    1    -151.6812677176      1.75e-01  
Finding J and K together
 Job number = 22, Threshold = 1.00E-11
Integral type ranges set in mkLRange.C for JobNum: 22  <1-6|1-6>
 MakeJK  time:  CPU       0.15 s  wall       0.17 s
    2    -152.3257186396      2.23e-02  
Finding J and K together
 Job number = 22, Threshold = 1.00E-11
Integral type ranges set in mkLRange.C for JobNum: 22  <1-6|1-6>
 MakeJK  time:  CPU       0.12 s  wall       0.12 s
    3    -152.1731314734      3.96e-02  
Finding J and K together
 Job number = 22, Threshold = 1.00E-11
Integral type ranges set in mkLRange.C for JobNum: 22  <1-6|1-6>
 MakeJK  time:  CPU       0.12 s  wall       0.12 s
    4    -152.4803975038      3.87e-03  
Finding J and K together
 Job number = 22, Threshold = 1.00E-11
Integral type ranges set in mkLRange.C for JobNum: 22  <1-6|1-6>
 MakeJK  time:  CPU       0.13 s  wall       0.13 s
    5    -152.4837173393      2.29e-03  
Finding J and K together
 Job number = 22, Threshold = 1.00E-11
Integral type ranges set in mkLRange.C for JobNum: 22  <1-6|1-6>
 MakeJK  time:  CPU       0.12 s  wall       0.12 s
    6    -152.4848890166      1.24e-03  
Finding J and K together
 Job number = 22, Threshold = 1.00E-11
Integral type ranges set in mkLRange.C for JobNum: 22  <1-6|1-6>
 MakeJK  time:  CPU       0.14 s  wall       0.15 s
    7    -152.4853978947      6.02e-04  
Finding J and K together
 Job number = 22, Threshold = 1.00E-11
Integral type ranges set in mkLRange.C for JobNum: 22  <1-6|1-6>
 MakeJK  time:  CPU       0.16 s  wall       0.16 s
    8    -152.4856038665      2.69e-04  
Finding J and K together
 Job number = 22, Threshold = 1.00E-11
Integral type ranges set in mkLRange.C for JobNum: 22  <1-6|1-6>
 MakeJK  time:  CPU       0.15 s  wall       0.15 s
    9    -152.4856764896      1.53e-04  
Finding J and K together
 Job number = 22, Threshold = 1.00E-11
Integral type ranges set in mkLRange.C for JobNum: 22  <1-6|1-6>
 MakeJK  time:  CPU       0.15 s  wall       0.15 s
   10    -152.4856850931      2.31e-05  
Finding J and K together
 Job number = 22, Threshold = 1.00E-11
Integral type ranges set in mkLRange.C for JobNum: 22  <1-6|1-6>
 MakeJK  time:  CPU       0.16 s  wall       0.18 s
   11    -152.4856853784      8.56e-06  
Finding J and K together
 Job number = 22, Threshold = 1.00E-11
Integral type ranges set in mkLRange.C for JobNum: 22  <1-6|1-6>
 MakeJK  time:  CPU       0.16 s  wall       0.16 s
   12    -152.4856854396      4.14e-06  
Finding J and K together
 Job number = 22, Threshold = 1.00E-11
Integral type ranges set in mkLRange.C for JobNum: 22  <1-6|1-6>
 MakeJK  time:  CPU       0.16 s  wall       0.16 s
   13    -152.4856854589      1.95e-06  
Finding J and K together
 Job number = 22, Threshold = 1.00E-11
Integral type ranges set in mkLRange.C for JobNum: 22  <1-6|1-6>
 MakeJK  time:  CPU       0.12 s  wall       0.12 s
   14    -152.4856854641      5.38e-07  
Finding J and K together
 Job number = 22, Threshold = 1.00E-11
Integral type ranges set in mkLRange.C for JobNum: 22  <1-6|1-6>
 MakeJK  time:  CPU       0.13 s  wall       0.13 s
   15    -152.4856854643      1.02e-07  
Finding J and K together
 Job number = 22, Threshold = 1.00E-11
Integral type ranges set in mkLRange.C for JobNum: 22  <1-6|1-6>
 MakeJK  time:  CPU       0.15 s  wall       0.15 s
   16    -152.4856854643      2.92e-08  
Finding J and K together
 Job number = 22, Threshold = 1.00E-11
Integral type ranges set in mkLRange.C for JobNum: 22  <1-6|1-6>
 MakeJK  time:  CPU       0.16 s  wall       0.16 s
   17    -152.4856854643      1.09e-08  
   18    -152.4856854643      2.77e-09  Convergence criterion met
 ---------------------------------------
 SCF time:   CPU 2.60s  wall 3.00s 
 Total energy in the final basis set =     -152.4856854643
Wall  1 = 3
Clock 1 = 2.5962309837
 ==================================================
                  Done GEN_SCFMAN                  
 ==================================================

Symmetry turned off temporarily

 --------------------------------------------------------------

                    Orbital Energies (a.u.)
 --------------------------------------------------------------

 Alpha MOs
 -- Occupied --
-11.095 -11.069 -10.945 -10.908  -1.013  -0.889  -0.771  -0.601
 -0.595  -0.553  -0.505  -0.380  -0.327  -0.244  -0.166
 -- Virtual --
  0.050   0.204   0.377   0.534   0.588   0.672   0.708   0.742
  0.774   0.899   1.002
 --------------------------------------------------------------

          Ground-State Mulliken Net Atomic Charges

     Atom                 Charge (a.u.)
  ----------------------------------------
      1 C                    -0.161028
      2 C                    -0.115995
      3 H                     0.045558
      4 H                     0.023487
      5 C                     0.071100
      6 C                    -0.164528
      7 H                     0.105101
      8 H                     0.104862
      9 H                    -0.009673
     10 H                     0.101116
  ----------------------------------------
  Sum of atomic charges =     0.000000

 -----------------------------------------------------------------
                    Cartesian Multipole Moments
 -----------------------------------------------------------------
    Charge (ESU x 10^10)
                -0.0000
    Dipole Moment (Debye)
         X      -4.1357      Y      -0.3784      Z      -0.4415
       Tot       4.1764
    Quadrupole Moments (Debye-Ang)
        XX     -69.7825     XY       5.3316     YY     -22.3133
        XZ       0.9227     YZ       1.0074     ZZ     -21.9172
    Octopole Moments (Debye-Ang^2)
       XXX    -828.9112    XXY     111.4454    XYY    -153.4598
       YYY     110.7340    XXZ      28.3982    XYZ       2.9176
       YYZ       0.1225    XZZ    -137.1337    YZZ      36.1953
       ZZZ       8.5772
    Hexadecapole Moments (Debye-Ang^3)
      XXXX   -9022.1980   XXXY    1411.4183   XXYY   -1209.4523
      XYYY     735.0834   YYYY    -419.5431   XXXZ     233.1675
      XXYZ       1.9073   XYYZ     -35.1664   YYYZ       3.2906
      XXZZ    -962.4424   XYZZ     234.2295   YYZZ     -89.3953
      XZZZ     -49.6975   YZZZ      -1.7735   ZZZZ    -119.5934
 -----------------------------------------------------------------
drvman_main.C: 73: calling DrvMan  Calculating analytic gradient of the SCF energy
drvman.C : 218: Calculating analytic gradient of the SCF energy
drvman.C: 244: calling SCF_Grad for normal SCF gradient
 Job number = 111, Threshold = 1.00E-11
Integral type ranges set in mkLRange.C for JobNum: 11  <1-6|7-7>
Finding J and K together
 ML is being used
 Job number = 122, Threshold = 1.00E-11
Integral type ranges set in mkLRange.C for JobNum: 22  <1-6|1-6>
Total number of integrals generated =           63076
 MakeJK  time:  CPU       0.31 s  wall       0.31 s
 Gradient of SCF Energy
            1           2           3           4           5           6
    1   0.0766116  -0.0803589   0.0590344  -0.0601568   0.0490921  -0.0738627
    2   0.0322129  -0.0564431   0.0366235  -0.0098529  -0.0130528   0.0597892
    3   0.0627909  -0.1422763   0.0735215  -0.0491204   0.0074351  -0.0506959
            7           8           9          10
    1  -0.0107489   0.0282205   0.0602050  -0.0480364
    2  -0.0707025   0.0262394  -0.0005686  -0.0042452
    3   0.0192509   0.0017061   0.0585605   0.0188276
 Max gradient component =       1.423E-01
 RMS gradient           =       5.417E-02
drvman.C: 248: out of SCF_Grad for normal SCF gradient
 Gradient time:  CPU 0.33 s  wall 0.33 s
 ------------------------------------------------------------------------------
                     drvman        : Timing summary (seconds)
 ------------------------------------------------------------------------------
     job step          cpu (% of tot)      sys (% of tot)     wall (% of tot)
 ------------------------------------------------------------------------------
 ------------------------------------------------------------------------------
   Grand Totals     0.3280E+00          0.2000E-05          0.3317E+00
 ------------------------------------------------------------------------------
drvman_main.C: 77: out of DrvMan =======================================================
            AB INITIO MOLECULAR DYNAMICS
=======================================================
Created directory /home/jcartus/scratch/Butadien_16.mol.dir/AIMD
AIMD will take 400 BOMD steps Velocity Verlet integration
Time step = 20.00000 a.u. ( = 0.48378 fs)
Total simulation time requested = 193.511 fs
Integral threshold = 10**(-11)
SCF convergence threshold = 10**(-8)
Generating viewable xyz trajectory,
 file (in Angstroms) at AIMD/View.xyz
Choosing nuclear velocities from Maxwell-Boltzmann
Velocities sampled from Maxwell-Boltzmann at T = 400.0 K
sqrt(kT/m) and (vx,vy,vz) for each atom:
  1   2.4064e-04   1.41e-04  -2.21e-04  -3.68e-06 
  2   2.4064e-04  -4.74e-04  -3.07e-04   2.40e-04 
  3   8.3036e-04  -1.79e-03  -3.08e-04  -9.99e-04 
  4   8.3036e-04   1.75e-03   7.56e-04   1.41e-04 
  5   2.4064e-04   3.10e-04  -8.21e-05   3.94e-05 
  6   2.4064e-04  -1.22e-04  -3.63e-04  -3.04e-04 
  7   8.3036e-04   1.68e-04  -3.61e-04   5.35e-04 
  8   8.3036e-04  -8.74e-04   5.55e-04   2.99e-04 
  9   8.3036e-04  -1.80e-04  -5.97e-04   1.44e-04 
 10   8.3036e-04   2.13e-03   1.35e-03   4.93e-04 
T(nuclear) = 0.02382896 a.u.
v(c.o.m.) = ( -9.8123e-06,  -1.9013e-04,   5.1732e-06)
T(c.o.m.) = 1.78675e-03 a.u.
kT/2 = 0.000633 a.u.
Tx   = 0.014558 a.u.
Ty   = 0.006088 a.u.
Tz   = 0.003183 a.u.
Mean velocities (a.u.):   1.0621e-04   4.1823e-05   5.8478e-05
Removing c.o.m. velocity
T(nuclear) = 0.03075624 a.u.
v(c.o.m.) = (  2.7045e-20,  -1.8030e-20,  -1.0142e-20)
T(c.o.m.) = 5.71123e-35 a.u.
kT   = 0.001267 a.u. = 0.79 kcal/mol
Tx   = 0.014677 a.u. = 9.21 kcal/mol
Ty   = 0.012922 a.u. = 8.11 kcal/mol
Tz   = 0.003158 a.u. = 1.98 kcal/mol
Initial velocities in m/s
  1      3.1819e+02     -2.9640e+02     -1.3152e+01 
  2     -1.0279e+03     -4.8469e+02      5.2058e+02 
  3     -3.7913e+03      1.5567e+03     -2.2461e+03 
  4      3.9448e+03      3.8837e+03      2.4746e+02 
  5      6.8753e+02      7.7433e+00      8.1199e+01 
  6     -2.5775e+02     -6.0632e+02     -6.7067e+02 
  7      4.8272e+02      1.4405e+03      1.1092e+03 
  8     -1.7978e+03      3.4440e+03      5.9289e+02 
  9     -2.7912e+02      9.2514e+02      2.5495e+02 
 10      4.7735e+03      5.1773e+03      1.0185e+03 
----------------------------------------------------------------------------
       Nuclear coordinates (Angst) and velocities (a.u.)
----------------------------------------------------------------------------
             x        y        z            v_x         v_y        v_z
----------------------------------------------------------------------------
1      C    8.5038  -2.0140   0.7381     1.4544e-04  -1.3548e-04  -6.0117e-06
2      C    7.4596  -1.3010   0.1378    -4.6984e-04  -2.2155e-04   2.3796e-04
3      H    9.3289  -1.6336   1.5748    -1.7330e-03   7.1156e-04  -1.0267e-03
4      H    8.2800  -3.0446   0.2832     1.8032e-03   1.7753e-03   1.1311e-04
5      C    4.5826  -1.8315  -0.3757     3.1427e-04   3.5395e-06   3.7116e-05
6      C    3.6568  -1.2675  -1.2449    -1.1782e-04  -2.7715e-04  -3.0656e-04
7      H    3.4840  -0.3070  -1.5436     2.2065e-04   6.5845e-04   5.0700e-04
8      H    3.2453  -1.9535  -1.9427    -8.2180e-04   1.5743e-03   2.7101e-04
9      H    7.6568  -0.3940   0.9005    -1.2759e-04   4.2288e-04   1.1654e-04
10     H    3.9978  -2.5847   0.2947     2.1820e-03   2.3665e-03   4.6554e-04
----------------------------------------------------------------------------
Write nuclear velocities every 1 time steps

TIME STEP #1 (t = 0.000 a.u. = 0.00000 fs)
--------------------------------------
 Instantaneous Temperature = 647.5 K
 ----------------------------------------------------------------
             Standard Nuclear Orientation (Angstroms)
    I     Atom           X                Y                Z
 ----------------------------------------------------------------
    1      C       8.5049386501    -2.0155797539     0.7377125760
    2      C       7.4549862246    -1.3030717411     0.1410168150
    3      H       9.3071577235    -1.6281689835     1.5597284608
    4      H       8.3025894445    -3.0252938347     0.2872068843
    5      C       4.5856385749    -1.8313493866    -0.3753231492
    6      C       3.6559604178    -1.2707024955    -1.2478592497
    7      H       3.4869644909    -0.2959082704    -1.5393031824
    8      H       3.2349567138    -1.9383400987    -1.9399699968
    9      H       7.6519513847    -0.3894916230     0.8983898219
   10      H       4.0236404534    -2.5594390796     0.2985024723
 ----------------------------------------------------------------
 Nuclear Repulsion Energy =    83.2969032535 hartrees
 There are       15 alpha and       15 beta electrons

                       Distance Matrix (Angstroms)
             C (  1)   C (  2)   H (  3)   H (  4)   C (  5)   C (  6)
   C (  2)  1.402182
   H (  3)  1.212169  2.355625
   H (  4)  1.124021  1.925059  2.140193
   C (  5)  4.078444  2.962911  5.106706  3.959820
   C (  6)  5.292441  4.045074  6.320313  5.198671  1.392819
   H (  7)  5.772533  4.425274  6.727077  5.828887  2.217998  1.031369
   H (  8)  5.911739  4.747918  7.015392  5.641160  2.069760  1.049763
   H (  9)  1.843249  1.202929  2.170576  2.782863  3.619886  4.620699
   H ( 10)  4.535496  3.657512  5.511217  4.304248  1.140174  2.046281
             H (  7)   H (  8)   H (  9)
   H (  8)  1.709276
   H (  9)  4.826823  5.474035
   H ( 10)  2.964645  2.453272  4.270032

 Applying Cartesian multipole field
    Component          Value
    ---------          -----
     (2,0,0)        1.00000E-12
     (0,2,0)        2.00000E-11
     (0,0,2)       -3.00000E-11
 Nucleus-field energy     =     0.0000000081 hartrees
 ENuRep (before)= 83.2969032535
 ENucField = 0.0000000081
 ENuRep (after) = 83.2969032616
 Job number = 2, Threshold = 1.00E-11
Integral type ranges set in mkLRange.C for JobNum: 2  <1-6|1-6>
Symmetry turned off temporarily
Symmetry turned back on
 Job number = 11, Threshold = 1.00E-11
Integral type ranges set in mkLRange.C for JobNum: 11  <1-6|7-7>
 Smallest overlap matrix eigenvalue = 2.11E-01
 Multipole matrices computed through 2nd order
 Guess from superposition of atomic densities
 Warning:  Energy on first SCF cycle will be non-variational
 SAD guess density has 30.000000 electrons
 SCF convergence criterion is 10**(-8)
 A restricted Hartree-Fock SCF calculation will be
 performed using Pulay DIIS extrapolation
 SCF converges when DIIS error is below 1.0E-08
Finding J and K together
 Job number = 22, Threshold = 1.00E-11
Integral type ranges set in mkLRange.C for JobNum: 22  <1-6|1-6>
 MakeJK  time:  CPU       0.10 s  wall       0.10 s
Fock build time:  0.10 s (CPU) 0.10 s (wall)
DIIS Errors:  Max 9.95E-01 RMS 1.76E-01

Current DIIS subspace size = 1
REM_GRID_RESTART_DIIS = 0

 ---------------------------------------
  Cycle       Energy         DIIS Error
 ---------------------------------------
    1    -151.7201372404      1.76E-01  00000
Finding J and K together
 Job number = 22, Threshold = 1.00E-11
Integral type ranges set in mkLRange.C for JobNum: 22  <1-6|1-6>
 MakeJK  time:  CPU       0.13 s  wall       0.17 s
Fock build time:  0.13 s (CPU) 0.17 s (wall)
DIIS Errors:  Max 1.21E-01 RMS 2.23E-02

Current DIIS subspace size = 2
REM_GRID_RESTART_DIIS = 0

    2    -152.3370458222      2.23E-02  00000
Finding J and K together
 Job number = 22, Threshold = 1.00E-11
Integral type ranges set in mkLRange.C for JobNum: 22  <1-6|1-6>
 MakeJK  time:  CPU       0.13 s  wall       0.13 s
Fock build time:  0.13 s (CPU) 0.13 s (wall)
DIIS Errors:  Max 2.15E-01 RMS 3.97E-02

Current DIIS subspace size = 3
REM_GRID_RESTART_DIIS = 0

    3    -152.1858980705      3.97E-02  00000
Finding J and K together
 Job number = 22, Threshold = 1.00E-11
Integral type ranges set in mkLRange.C for JobNum: 22  <1-6|1-6>
 MakeJK  time:  CPU       0.12 s  wall       0.12 s
Fock build time:  0.12 s (CPU) 0.12 s (wall)
DIIS Errors:  Max 2.11E-02 RMS 3.88E-03

Current DIIS subspace size = 4
REM_GRID_RESTART_DIIS = 0

    4    -152.4905168985      3.88E-03  00000
Finding J and K together
 Job number = 22, Threshold = 1.00E-11
Integral type ranges set in mkLRange.C for JobNum: 22  <1-6|1-6>
 MakeJK  time:  CPU       0.14 s  wall       0.14 s
Fock build time:  0.14 s (CPU) 0.14 s (wall)
DIIS Errors:  Max 1.17E-02 RMS 2.29E-03

Current DIIS subspace size = 5
REM_GRID_RESTART_DIIS = 0

    5    -152.4938023375      2.29E-03  00000
Finding J and K together
 Job number = 22, Threshold = 1.00E-11
Integral type ranges set in mkLRange.C for JobNum: 22  <1-6|1-6>
 MakeJK  time:  CPU       0.15 s  wall       0.15 s
Fock build time:  0.15 s (CPU) 0.15 s (wall)
DIIS Errors:  Max 7.18E-03 RMS 1.24E-03

Current DIIS subspace size = 6
REM_GRID_RESTART_DIIS = 0

    6    -152.4949870356      1.24E-03  00000
Finding J and K together
 Job number = 22, Threshold = 1.00E-11
Integral type ranges set in mkLRange.C for JobNum: 22  <1-6|1-6>
 MakeJK  time:  CPU       0.12 s  wall       0.12 s
Fock build time:  0.12 s (CPU) 0.12 s (wall)
DIIS Errors:  Max 4.21E-03 RMS 6.13E-04

Current DIIS subspace size = 7
REM_GRID_RESTART_DIIS = 0

    7    -152.4955018261      6.13E-04  00000
Finding J and K together
 Job number = 22, Threshold = 1.00E-11
Integral type ranges set in mkLRange.C for JobNum: 22  <1-6|1-6>
 MakeJK  time:  CPU       0.13 s  wall       0.13 s
Fock build time:  0.13 s (CPU) 0.13 s (wall)
DIIS Errors:  Max 2.22E-03 RMS 2.75E-04

Current DIIS subspace size = 8
REM_GRID_RESTART_DIIS = 0

    8    -152.4957141966      2.75E-04  00000
Finding J and K together
 Job number = 22, Threshold = 1.00E-11
Integral type ranges set in mkLRange.C for JobNum: 22  <1-6|1-6>
 MakeJK  time:  CPU       0.11 s  wall       0.11 s
Fock build time:  0.11 s (CPU) 0.11 s (wall)
DIIS Errors:  Max 7.67E-04 RMS 1.57E-04

Current DIIS subspace size = 9
REM_GRID_RESTART_DIIS = 0

    9    -152.4957942642      1.57E-04  00000
Finding J and K together
 Job number = 22, Threshold = 1.00E-11
Integral type ranges set in mkLRange.C for JobNum: 22  <1-6|1-6>
 MakeJK  time:  CPU       0.10 s  wall       0.10 s
Fock build time:  0.10 s (CPU) 0.10 s (wall)
DIIS Errors:  Max 1.29E-04 RMS 2.35E-05

Current DIIS subspace size = 10
REM_GRID_RESTART_DIIS = 0

   10    -152.4958027619      2.35E-05  00000
Finding J and K together
 Job number = 22, Threshold = 1.00E-11
Integral type ranges set in mkLRange.C for JobNum: 22  <1-6|1-6>
 MakeJK  time:  CPU       0.12 s  wall       0.12 s
Fock build time:  0.12 s (CPU) 0.12 s (wall)
DIIS Errors:  Max 4.68E-05 RMS 8.99E-06

Current DIIS subspace size = 11
REM_GRID_RESTART_DIIS = 0

   11    -152.4958030659      8.99E-06  00000
Finding J and K together
 Job number = 22, Threshold = 1.00E-11
Integral type ranges set in mkLRange.C for JobNum: 22  <1-6|1-6>
 MakeJK  time:  CPU       0.14 s  wall       0.14 s
Fock build time:  0.14 s (CPU) 0.14 s (wall)
DIIS Errors:  Max 3.00E-05 RMS 4.31E-06

Current DIIS subspace size = 12
REM_GRID_RESTART_DIIS = 0

   12    -152.4958031318      4.31E-06  00000
Finding J and K together
 Job number = 22, Threshold = 1.00E-11
Integral type ranges set in mkLRange.C for JobNum: 22  <1-6|1-6>
 MakeJK  time:  CPU       0.13 s  wall       0.13 s
Fock build time:  0.13 s (CPU) 0.13 s (wall)
DIIS Errors:  Max 1.20E-05 RMS 1.98E-06

Current DIIS subspace size = 13
REM_GRID_RESTART_DIIS = 0

   13    -152.4958031524      1.98E-06  00000
Finding J and K together
 Job number = 22, Threshold = 1.00E-11
Integral type ranges set in mkLRange.C for JobNum: 22  <1-6|1-6>
 MakeJK  time:  CPU       0.14 s  wall       0.14 s
Fock build time:  0.14 s (CPU) 0.14 s (wall)
DIIS Errors:  Max 2.79E-06 RMS 5.33E-07

Current DIIS subspace size = 14
REM_GRID_RESTART_DIIS = 0

   14    -152.4958031578      5.33E-07  00000
Finding J and K together
 Job number = 22, Threshold = 1.00E-11
Integral type ranges set in mkLRange.C for JobNum: 22  <1-6|1-6>
 MakeJK  time:  CPU       0.15 s  wall       0.16 s
Fock build time:  0.15 s (CPU) 0.16 s (wall)
DIIS Errors:  Max 7.52E-07 RMS 1.05E-07

Current DIIS subspace size = 15
REM_GRID_RESTART_DIIS = 0

   15    -152.4958031581      1.05E-07  00000
Finding J and K together
 Job number = 22, Threshold = 1.00E-11
Integral type ranges set in mkLRange.C for JobNum: 22  <1-6|1-6>
 MakeJK  time:  CPU       0.16 s  wall       0.16 s
Fock build time:  0.16 s (CPU) 0.16 s (wall)
DIIS Errors:  Max 1.66E-07 RMS 2.81E-08

Current DIIS subspace size = 15
REM_GRID_RESTART_DIIS = 0

   16    -152.4958031581      2.81E-08  00000
Finding J and K together
 Job number = 22, Threshold = 1.00E-11
Integral type ranges set in mkLRange.C for JobNum: 22  <1-6|1-6>
 MakeJK  time:  CPU       0.14 s  wall       0.14 s
Fock build time:  0.14 s (CPU) 0.14 s (wall)
DIIS Errors:  Max 5.77E-08 RMS 1.20E-08

Current DIIS subspace size = 15
REM_GRID_RESTART_DIIS = 0

   17    -152.4958031581      1.20E-08  00000
Finding J and K together
 Job number = 22, Threshold = 1.00E-11
Integral type ranges set in mkLRange.C for JobNum: 22  <1-6|1-6>
 MakeJK  time:  CPU       0.14 s  wall       0.14 s
Fock build time:  0.14 s (CPU) 0.14 s (wall)
DIIS Errors:  Max 1.15E-08 RMS 2.60E-09

Current DIIS subspace size = 15
REM_GRID_RESTART_DIIS = 0

   18    -152.4958031581      2.60E-09  00000 Convergence criterion met
 ---------------------------------------
 SCF time:  CPU 2.39 s  wall 2.45 s
 SCF   energy in the final basis set = -152.49580316
 Total energy in the final basis set = -152.49580316
drvman_main.C: 73: calling DrvMan  Calculating analytic gradient of the SCF energy
drvman.C : 218: Calculating analytic gradient of the SCF energy
drvman.C: 244: calling SCF_Grad for normal SCF gradient
 Job number = 111, Threshold = 1.00E-11
Integral type ranges set in mkLRange.C for JobNum: 11  <1-6|7-7>
Finding J and K together
 ML is being used
 Job number = 122, Threshold = 1.00E-11
Integral type ranges set in mkLRange.C for JobNum: 22  <1-6|1-6>
 MakeJK  time:  CPU       0.35 s  wall       0.35 s
 Gradient of SCF Energy
            1           2           3           4           5           6
    1   0.0827451  -0.0808211   0.0516585  -0.0572496   0.0436569  -0.0793981
    2   0.0171718  -0.0555631   0.0349768   0.0037497  -0.0250116   0.0401116
    3   0.0640223  -0.1430806   0.0671609  -0.0433842   0.0190481  -0.0575153
            7           8           9          10
    1  -0.0133281   0.0329148   0.0600715  -0.0402499
    2  -0.0585742   0.0345096   0.0015913   0.0070382
    3   0.0156869   0.0091310   0.0588978   0.0100328
 Max gradient component =       1.431E-01
 RMS gradient           =       5.294E-02
drvman.C: 248: out of SCF_Grad for normal SCF gradient
 Gradient time:  CPU 0.37 s  wall 0.37 s
 ------------------------------------------------------------------------------
                     drvman        : Timing summary (seconds)
 ------------------------------------------------------------------------------
     job step          cpu (% of tot)      sys (% of tot)     wall (% of tot)
 ------------------------------------------------------------------------------
 ------------------------------------------------------------------------------
   Grand Totals     0.3720E+00          0.4000E-05          0.3706E+00
 ------------------------------------------------------------------------------
drvman_main.C: 77: out of DrvMan  Time for this dynamics step: 2.8 s (CPU) 2.9 s (wall)

TIME STEP #2 (t = 20.000 a.u. = 0.48378 fs)
--------------------------------------
 Instantaneous Temperature = 857.6 K
 ----------------------------------------------------------------
             Standard Nuclear Orientation (Angstroms)
    I     Atom           X                Y                Z
 ----------------------------------------------------------------
    1      C       8.5053066144    -2.0173356714     0.7367256380
    2      C       7.4511845173    -1.3046058235     0.1456081536
    3      H       9.2794635518    -1.6267778680     1.5368888894
    4      H       8.3317349705    -3.0063696907     0.2962323284
    5      C       4.5883047022    -1.8310067472    -0.3751506181
    6      C       3.6558391341    -1.2743131319    -1.2503019506
    7      H       3.4914545972    -0.2781178409    -1.5368537562
    8      H       3.2208411056    -1.9271662647    -1.9382520383
    9      H       7.6402115556    -0.3851665936     0.8894636587
   10      H       4.0541383514    -2.5349590692     0.3011889986
 ----------------------------------------------------------------
 Nuclear Repulsion Energy =    83.5075022192 hartrees
 There are       15 alpha and       15 beta electrons

                       Distance Matrix (Angstroms)
             C (  1)   C (  2)   H (  3)   H (  4)   C (  5)   C (  6)
   C (  2)  1.403060
   H (  3)  1.179879  2.319927
   H (  4)  1.096517  1.921993  2.083433
   C (  5)  4.076014  2.957088  5.069968  3.980641
   C (  6)  5.293174  4.044024  6.286320  5.220708  1.394736
   H (  7)  5.773453  4.423100  6.690876  5.850801  2.228026  1.049542
   H (  8)  5.923615  4.756665  6.990976  5.681447  2.079060  1.043415
   H (  9)  1.853563  1.197673  2.155900  2.775038  3.606084  4.609165
   H ( 10)  4.502280  3.616338  5.445711  4.303497  1.112797  2.038380
             H (  7)   H (  8)   H (  9)
   H (  8)  1.718637
   H (  9)  4.807355  5.468507
   H ( 10)  2.964515  2.465541  4.222274

 Applying Cartesian multipole field
    Component          Value
    ---------          -----
     (2,0,0)        1.00000E-12
     (0,2,0)        2.00000E-11
     (0,0,2)       -3.00000E-11
 Nucleus-field energy     =     0.0000000081 hartrees
 ENuRep (before)= 83.5075022192
 ENucField = 0.0000000081
 ENuRep (after) = 83.5075022273
 Job number = 2, Threshold = 1.00E-11
Integral type ranges set in mkLRange.C for JobNum: 2  <1-6|1-6>
Symmetry turned off temporarily
Symmetry turned back on
 Job number = 11, Threshold = 1.00E-11
Integral type ranges set in mkLRange.C for JobNum: 11  <1-6|7-7>
 Smallest overlap matrix eigenvalue = 2.12E-01
 Multipole matrices computed through 2nd order
 Guess from superposition of atomic densities
 Warning:  Energy on first SCF cycle will be non-variational
 SAD guess density has 30.000000 electrons
 SCF convergence criterion is 10**(-8)
 A restricted Hartree-Fock SCF calculation will be
 performed using Pulay DIIS extrapolation
 SCF converges when DIIS error is below 1.0E-08
Finding J and K together
 Job number = 22, Threshold = 1.00E-11
Integral type ranges set in mkLRange.C for JobNum: 22  <1-6|1-6>
 MakeJK  time:  CPU       0.13 s  wall       0.14 s
Fock build time:  0.13 s (CPU) 0.14 s (wall)
DIIS Errors:  Max 9.89E-01 RMS 1.78E-01

Current DIIS subspace size = 1
REM_GRID_RESTART_DIIS = 0

 ---------------------------------------
  Cycle       Energy         DIIS Error
 ---------------------------------------
    1    -151.7691594346      1.78E-01  00000
Finding J and K together
 Job number = 22, Threshold = 1.00E-11
Integral type ranges set in mkLRange.C for JobNum: 22  <1-6|1-6>
 MakeJK  time:  CPU       0.16 s  wall       0.17 s
Fock build time:  0.16 s (CPU) 0.17 s (wall)
DIIS Errors:  Max 1.22E-01 RMS 2.23E-02

Current DIIS subspace size = 2
REM_GRID_RESTART_DIIS = 0

    2    -152.3520184840      2.23E-02  00000
Finding J and K together
 Job number = 22, Threshold = 1.00E-11
Integral type ranges set in mkLRange.C for JobNum: 22  <1-6|1-6>
 MakeJK  time:  CPU       0.16 s  wall       0.17 s
Fock build time:  0.16 s (CPU) 0.17 s (wall)
DIIS Errors:  Max 2.19E-01 RMS 3.99E-02

Current DIIS subspace size = 3
REM_GRID_RESTART_DIIS = 0

    3    -152.2015267263      3.99E-02  00000
Finding J and K together
 Job number = 22, Threshold = 1.00E-11
Integral type ranges set in mkLRange.C for JobNum: 22  <1-6|1-6>
 MakeJK  time:  CPU       0.17 s  wall       0.17 s
Fock build time:  0.17 s (CPU) 0.17 s (wall)
DIIS Errors:  Max 2.14E-02 RMS 3.92E-03

Current DIIS subspace size = 4
REM_GRID_RESTART_DIIS = 0

    4    -152.5045714253      3.92E-03  00000
Finding J and K together
 Job number = 22, Threshold = 1.00E-11
Integral type ranges set in mkLRange.C for JobNum: 22  <1-6|1-6>
 MakeJK  time:  CPU       0.16 s  wall       0.17 s
Fock build time:  0.16 s (CPU) 0.17 s (wall)
DIIS Errors:  Max 1.19E-02 RMS 2.32E-03

Current DIIS subspace size = 5
REM_GRID_RESTART_DIIS = 0

    5    -152.5078248016      2.32E-03  00000
Finding J and K together
 Job number = 22, Threshold = 1.00E-11
Integral type ranges set in mkLRange.C for JobNum: 22  <1-6|1-6>
 MakeJK  time:  CPU       0.16 s  wall       0.17 s
Fock build time:  0.16 s (CPU) 0.17 s (wall)
DIIS Errors:  Max 7.33E-03 RMS 1.25E-03

Current DIIS subspace size = 6
REM_GRID_RESTART_DIIS = 0

    6    -152.5090487845      1.25E-03  00000
Finding J and K together
 Job number = 22, Threshold = 1.00E-11
Integral type ranges set in mkLRange.C for JobNum: 22  <1-6|1-6>
 MakeJK  time:  CPU       0.16 s  wall       0.18 s
Fock build time:  0.16 s (CPU) 0.18 s (wall)
DIIS Errors:  Max 4.38E-03 RMS 6.34E-04

Current DIIS subspace size = 7
REM_GRID_RESTART_DIIS = 0

    7    -152.5095740370      6.34E-04  00000
Finding J and K together
 Job number = 22, Threshold = 1.00E-11
Integral type ranges set in mkLRange.C for JobNum: 22  <1-6|1-6>
 MakeJK  time:  CPU       0.17 s  wall       0.17 s
Fock build time:  0.17 s (CPU) 0.17 s (wall)
DIIS Errors:  Max 2.30E-03 RMS 2.84E-04

Current DIIS subspace size = 8
REM_GRID_RESTART_DIIS = 0

    8    -152.5097966652      2.84E-04  00000
Finding J and K together
 Job number = 22, Threshold = 1.00E-11
Integral type ranges set in mkLRange.C for JobNum: 22  <1-6|1-6>
 MakeJK  time:  CPU       0.16 s  wall       0.17 s
Fock build time:  0.16 s (CPU) 0.17 s (wall)
DIIS Errors:  Max 8.21E-04 RMS 1.63E-04

Current DIIS subspace size = 9
REM_GRID_RESTART_DIIS = 0

    9    -152.5098872898      1.63E-04  00000
Finding J and K together
 Job number = 22, Threshold = 1.00E-11
Integral type ranges set in mkLRange.C for JobNum: 22  <1-6|1-6>
 MakeJK  time:  CPU       0.16 s  wall       0.17 s
Fock build time:  0.16 s (CPU) 0.17 s (wall)
DIIS Errors:  Max 1.34E-04 RMS 2.35E-05

Current DIIS subspace size = 10
REM_GRID_RESTART_DIIS = 0

   10    -152.5098956645      2.35E-05  00000
Finding J and K together
 Job number = 22, Threshold = 1.00E-11
Integral type ranges set in mkLRange.C for JobNum: 22  <1-6|1-6>
 MakeJK  time:  CPU       0.17 s  wall       0.17 s
Fock build time:  0.17 s (CPU) 0.17 s (wall)
DIIS Errors:  Max 4.80E-05 RMS 9.27E-06

Current DIIS subspace size = 11
REM_GRID_RESTART_DIIS = 0

   11    -152.5098959736      9.27E-06  00000
Finding J and K together
 Job number = 22, Threshold = 1.00E-11
Integral type ranges set in mkLRange.C for JobNum: 22  <1-6|1-6>
 MakeJK  time:  CPU       0.16 s  wall       0.16 s
Fock build time:  0.16 s (CPU) 0.16 s (wall)
DIIS Errors:  Max 3.03E-05 RMS 4.33E-06

Current DIIS subspace size = 12
REM_GRID_RESTART_DIIS = 0

   12    -152.5098960400      4.33E-06  00000
Finding J and K together
 Job number = 22, Threshold = 1.00E-11
Integral type ranges set in mkLRange.C for JobNum: 22  <1-6|1-6>
 MakeJK  time:  CPU       0.15 s  wall       0.17 s
Fock build time:  0.15 s (CPU) 0.17 s (wall)
DIIS Errors:  Max 1.16E-05 RMS 1.92E-06

Current DIIS subspace size = 13
REM_GRID_RESTART_DIIS = 0

   13    -152.5098960594      1.92E-06  00000
Finding J and K together
 Job number = 22, Threshold = 1.00E-11
Integral type ranges set in mkLRange.C for JobNum: 22  <1-6|1-6>
 MakeJK  time:  CPU       0.16 s  wall       0.16 s
Fock build time:  0.16 s (CPU) 0.16 s (wall)
DIIS Errors:  Max 2.95E-06 RMS 5.30E-07

Current DIIS subspace size = 14
REM_GRID_RESTART_DIIS = 0

   14    -152.5098960647      5.30E-07  00000
Finding J and K together
 Job number = 22, Threshold = 1.00E-11
Integral type ranges set in mkLRange.C for JobNum: 22  <1-6|1-6>
 MakeJK  time:  CPU       0.14 s  wall       0.14 s
Fock build time:  0.14 s (CPU) 0.14 s (wall)
DIIS Errors:  Max 7.78E-07 RMS 1.07E-07

Current DIIS subspace size = 15
REM_GRID_RESTART_DIIS = 0

   15    -152.5098960649      1.07E-07  00000
Finding J and K together
 Job number = 22, Threshold = 1.00E-11
Integral type ranges set in mkLRange.C for JobNum: 22  <1-6|1-6>
 MakeJK  time:  CPU       0.10 s  wall       0.10 s
Fock build time:  0.10 s (CPU) 0.10 s (wall)
DIIS Errors:  Max 1.53E-07 RMS 2.56E-08

Current DIIS subspace size = 15
REM_GRID_RESTART_DIIS = 0

   16    -152.5098960649      2.56E-08  00000
Finding J and K together
 Job number = 22, Threshold = 1.00E-11
Integral type ranges set in mkLRange.C for JobNum: 22  <1-6|1-6>
 MakeJK  time:  CPU       0.10 s  wall       0.10 s
Fock build time:  0.10 s (CPU) 0.10 s (wall)
DIIS Errors:  Max 5.95E-08 RMS 1.24E-08

Current DIIS subspace size = 15
REM_GRID_RESTART_DIIS = 0

   17    -152.5098960649      1.24E-08  00000
Finding J and K together
 Job number = 22, Threshold = 1.00E-11
Integral type ranges set in mkLRange.C for JobNum: 22  <1-6|1-6>
 MakeJK  time:  CPU       0.10 s  wall       0.10 s
Fock build time:  0.10 s (CPU) 0.10 s (wall)
DIIS Errors:  Max 1.01E-08 RMS 2.19E-09

Current DIIS subspace size = 15
REM_GRID_RESTART_DIIS = 0

   18    -152.5098960649      2.19E-09  00000 Convergence criterion met
 ---------------------------------------
 SCF time:  CPU 2.71 s  wall 2.83 s
 SCF   energy in the final basis set = -152.50989606
 Total energy in the final basis set = -152.50989606
drvman_main.C: 73: calling DrvMan  Calculating analytic gradient of the SCF energy
drvman.C : 218: Calculating analytic gradient of the SCF energy
drvman.C: 244: calling SCF_Grad for normal SCF gradient
 Job number = 111, Threshold = 1.00E-11
Integral type ranges set in mkLRange.C for JobNum: 11  <1-6|7-7>
Finding J and K together
 ML is being used
 Job number = 122, Threshold = 1.00E-11
Integral type ranges set in mkLRange.C for JobNum: 22  <1-6|1-6>
 MakeJK  time:  CPU       0.36 s  wall       0.37 s
 Gradient of SCF Energy
            1           2           3           4           5           6
    1   0.0906454  -0.0788762   0.0405170  -0.0528276   0.0362681  -0.0819778
    2   0.0001117  -0.0513423   0.0306560   0.0200062  -0.0387494   0.0167785
    3   0.0658972  -0.1408988   0.0563795  -0.0349569   0.0329371  -0.0592638
            7           8           9          10
    1  -0.0167256   0.0358010   0.0582322  -0.0310565
    2  -0.0390653   0.0388901   0.0024863   0.0202279
    3   0.0106299   0.0131939   0.0573303  -0.0012482
 Max gradient component =       1.409E-01
 RMS gradient           =       5.125E-02
drvman.C: 248: out of SCF_Grad for normal SCF gradient
 Gradient time:  CPU 0.37 s  wall 0.39 s
 ------------------------------------------------------------------------------
                     drvman        : Timing summary (seconds)
 ------------------------------------------------------------------------------
     job step          cpu (% of tot)      sys (% of tot)     wall (% of tot)
 ------------------------------------------------------------------------------
 ------------------------------------------------------------------------------
   Grand Totals     0.3720E+00          0.2000E-05          0.3927E+00
 ------------------------------------------------------------------------------
drvman_main.C: 77: out of DrvMan  Time for this dynamics step: 3.1 s (CPU) 3.4 s (wall)

TIME STEP #3 (t = 40.000 a.u. = 0.96755 fs)
--------------------------------------
 Instantaneous Temperature = 1150.6 K
 ----------------------------------------------------------------
             Standard Nuclear Orientation (Angstroms)
    I     Atom           X                Y                Z
 ----------------------------------------------------------------
    1      C       8.5047974452    -2.0190926698     0.7351010436
    2      C       7.4481460583    -1.3056430909     0.1515629041
    3      H       9.2471011629    -1.6289188254     1.5075534866
    4      H       8.3669670978    -2.9897505911     0.3092853765
    5      C       4.5906198799    -1.8302891483    -0.3752968036
    6      C       3.6565111116    -1.2780861263    -1.2521711831
    7      H       3.4978717687    -0.2558264570    -1.5356290652
    8      H       3.2026006389    -1.9204732067    -1.9380542307
    9      H       7.6217624290    -0.3811280304     0.8739321188
   10      H       4.0882144577    -2.5128096458     0.3040193401
 ----------------------------------------------------------------
 Nuclear Repulsion Energy =    83.7552127286 hartrees
 There are       15 alpha and       15 beta electrons

                       Distance Matrix (Angstroms)
             C (  1)   C (  2)   H (  3)   H (  4)   C (  5)   C (  6)
   C (  2)  1.402155
   H (  3)  1.140146  2.275842
   H (  4)  1.068875  1.924922  2.015526
   C (  5)  4.073011  2.952675  5.026778  4.009215
   C (  6)  5.291902  4.043232  6.244506  5.249413  1.395133
   H (  7)  5.773615  4.421923  6.648307  5.880998  2.240402  1.072627
   H (  8)  5.938752  4.771705  6.963706  5.732763  2.092114  1.043615
   H (  9)  1.865999  1.186039  2.144804  2.771113  3.584476  4.587817
   H ( 10)  4.464952  3.573463  5.370649  4.305255  1.086147  2.032889
             H (  7)   H (  8)   H (  9)
   H (  8)  1.737866
   H (  9)  4.777882  5.459473
   H ( 10)  2.970990  2.482351  4.165913

 Applying Cartesian multipole field
    Component          Value
    ---------          -----
     (2,0,0)        1.00000E-12
     (0,2,0)        2.00000E-11
     (0,0,2)       -3.00000E-11
 Nucleus-field energy     =     0.0000000081 hartrees
 ENuRep (before)= 83.7552127286
 ENucField = 0.0000000081
 ENuRep (after) = 83.7552127367
 Job number = 2, Threshold = 1.00E-11
Integral type ranges set in mkLRange.C for JobNum: 2  <1-6|1-6>
Symmetry turned off temporarily
Symmetry turned back on
 Job number = 11, Threshold = 1.00E-11
Integral type ranges set in mkLRange.C for JobNum: 11  <1-6|7-7>
 Smallest overlap matrix eigenvalue = 2.13E-01
 Multipole matrices computed through 2nd order
 Guess from superposition of atomic densities
 Warning:  Energy on first SCF cycle will be non-variational
 SAD guess density has 30.000000 electrons
 SCF convergence criterion is 10**(-8)
 A restricted Hartree-Fock SCF calculation will be
 performed using Pulay DIIS extrapolation
 SCF converges when DIIS error is below 1.0E-08
Finding J and K together
 Job number = 22, Threshold = 1.00E-11
Integral type ranges set in mkLRange.C for JobNum: 22  <1-6|1-6>
 MakeJK  time:  CPU       0.13 s  wall       0.16 s
Fock build time:  0.13 s (CPU) 0.16 s (wall)
DIIS Errors:  Max 9.85E-01 RMS 1.80E-01

Current DIIS subspace size = 1
REM_GRID_RESTART_DIIS = 0

 ---------------------------------------
  Cycle       Energy         DIIS Error
 ---------------------------------------
    1    -151.8257953545      1.80E-01  00000
Finding J and K together
 Job number = 22, Threshold = 1.00E-11
Integral type ranges set in mkLRange.C for JobNum: 22  <1-6|1-6>
 MakeJK  time:  CPU       0.16 s  wall       0.17 s
Fock build time:  0.16 s (CPU) 0.17 s (wall)
DIIS Errors:  Max 1.23E-01 RMS 2.23E-02

Current DIIS subspace size = 2
REM_GRID_RESTART_DIIS = 0

    2    -152.3680532124      2.23E-02  00000
Finding J and K together
 Job number = 22, Threshold = 1.00E-11
Integral type ranges set in mkLRange.C for JobNum: 22  <1-6|1-6>
 MakeJK  time:  CPU       0.16 s  wall       0.17 s
Fock build time:  0.16 s (CPU) 0.17 s (wall)
DIIS Errors:  Max 2.24E-01 RMS 4.02E-02

Current DIIS subspace size = 3
REM_GRID_RESTART_DIIS = 0

    3    -152.2181679264      4.02E-02  00000
Finding J and K together
 Job number = 22, Threshold = 1.00E-11
Integral type ranges set in mkLRange.C for JobNum: 22  <1-6|1-6>
 MakeJK  time:  CPU       0.15 s  wall       0.15 s
Fock build time:  0.15 s (CPU) 0.15 s (wall)
DIIS Errors:  Max 2.20E-02 RMS 4.00E-03

Current DIIS subspace size = 4
REM_GRID_RESTART_DIIS = 0

    4    -152.5199200352      4.00E-03  00000
Finding J and K together
 Job number = 22, Threshold = 1.00E-11
Integral type ranges set in mkLRange.C for JobNum: 22  <1-6|1-6>
 MakeJK  time:  CPU       0.15 s  wall       0.15 s
Fock build time:  0.15 s (CPU) 0.15 s (wall)
DIIS Errors:  Max 1.24E-02 RMS 2.39E-03

Current DIIS subspace size = 5
REM_GRID_RESTART_DIIS = 0

    5    -152.5231419952      2.39E-03  00000
Finding J and K together
 Job number = 22, Threshold = 1.00E-11
Integral type ranges set in mkLRange.C for JobNum: 22  <1-6|1-6>
 MakeJK  time:  CPU       0.11 s  wall       0.11 s
Fock build time:  0.12 s (CPU) 0.11 s (wall)
DIIS Errors:  Max 7.49E-03 RMS 1.28E-03

Current DIIS subspace size = 6
REM_GRID_RESTART_DIIS = 0

    6    -152.5244240516      1.28E-03  00000
Finding J and K together
 Job number = 22, Threshold = 1.00E-11
Integral type ranges set in mkLRange.C for JobNum: 22  <1-6|1-6>
 MakeJK  time:  CPU       0.15 s  wall       0.15 s
Fock build time:  0.15 s (CPU) 0.15 s (wall)
DIIS Errors:  Max 4.56E-03 RMS 6.58E-04

Current DIIS subspace size = 7
REM_GRID_RESTART_DIIS = 0

    7    -152.5249619893      6.58E-04  00000
Finding J and K together
 Job number = 22, Threshold = 1.00E-11
Integral type ranges set in mkLRange.C for JobNum: 22  <1-6|1-6>
 MakeJK  time:  CPU       0.16 s  wall       0.16 s
Fock build time:  0.16 s (CPU) 0.16 s (wall)
DIIS Errors:  Max 2.35E-03 RMS 2.92E-04

Current DIIS subspace size = 8
REM_GRID_RESTART_DIIS = 0

    8    -152.5251998645      2.92E-04  00000
Finding J and K together
 Job number = 22, Threshold = 1.00E-11
Integral type ranges set in mkLRange.C for JobNum: 22  <1-6|1-6>
 MakeJK  time:  CPU       0.11 s  wall       0.11 s
Fock build time:  0.11 s (CPU) 0.11 s (wall)
DIIS Errors:  Max 8.84E-04 RMS 1.71E-04

Current DIIS subspace size = 9
REM_GRID_RESTART_DIIS = 0

    9    -152.5253005598      1.71E-04  00000
Finding J and K together
 Job number = 22, Threshold = 1.00E-11
Integral type ranges set in mkLRange.C for JobNum: 22  <1-6|1-6>
 MakeJK  time:  CPU       0.16 s  wall       0.16 s
Fock build time:  0.16 s (CPU) 0.16 s (wall)
DIIS Errors:  Max 1.38E-04 RMS 2.31E-05

Current DIIS subspace size = 10
REM_GRID_RESTART_DIIS = 0

   10    -152.5253087678      2.31E-05  00000
Finding J and K together
 Job number = 22, Threshold = 1.00E-11
Integral type ranges set in mkLRange.C for JobNum: 22  <1-6|1-6>
 MakeJK  time:  CPU       0.17 s  wall       0.17 s
Fock build time:  0.17 s (CPU) 0.17 s (wall)
DIIS Errors:  Max 4.60E-05 RMS 9.44E-06

Current DIIS subspace size = 11
REM_GRID_RESTART_DIIS = 0

   11    -152.5253090673      9.44E-06  00000
Finding J and K together
 Job number = 22, Threshold = 1.00E-11
Integral type ranges set in mkLRange.C for JobNum: 22  <1-6|1-6>
 MakeJK  time:  CPU       0.16 s  wall       0.17 s
Fock build time:  0.16 s (CPU) 0.17 s (wall)
DIIS Errors:  Max 2.94E-05 RMS 4.21E-06

Current DIIS subspace size = 12
REM_GRID_RESTART_DIIS = 0

   12    -152.5253091293      4.21E-06  00000
Finding J and K together
 Job number = 22, Threshold = 1.00E-11
Integral type ranges set in mkLRange.C for JobNum: 22  <1-6|1-6>
 MakeJK  time:  CPU       0.16 s  wall       0.16 s
Fock build time:  0.16 s (CPU) 0.16 s (wall)
DIIS Errors:  Max 1.08E-05 RMS 1.78E-06

Current DIIS subspace size = 13
REM_GRID_RESTART_DIIS = 0

   13    -152.5253091453      1.78E-06  00000
Finding J and K together
 Job number = 22, Threshold = 1.00E-11
Integral type ranges set in mkLRange.C for JobNum: 22  <1-6|1-6>
 MakeJK  time:  CPU       0.16 s  wall       0.16 s
Fock build time:  0.16 s (CPU) 0.16 s (wall)
DIIS Errors:  Max 3.01E-06 RMS 5.36E-07

Current DIIS subspace size = 14
REM_GRID_RESTART_DIIS = 0

   14    -152.5253091499      5.36E-07  00000
Finding J and K together
 Job number = 22, Threshold = 1.00E-11
Integral type ranges set in mkLRange.C for JobNum: 22  <1-6|1-6>
 MakeJK  time:  CPU       0.16 s  wall       0.16 s
Fock build time:  0.16 s (CPU) 0.16 s (wall)
DIIS Errors:  Max 7.96E-07 RMS 1.10E-07

Current DIIS subspace size = 15
REM_GRID_RESTART_DIIS = 0

   15    -152.5253091501      1.10E-07  00000
Finding J and K together
 Job number = 22, Threshold = 1.00E-11
Integral type ranges set in mkLRange.C for JobNum: 22  <1-6|1-6>
 MakeJK  time:  CPU       0.16 s  wall       0.16 s
Fock build time:  0.16 s (CPU) 0.16 s (wall)
DIIS Errors:  Max 1.38E-07 RMS 2.63E-08

Current DIIS subspace size = 15
REM_GRID_RESTART_DIIS = 0

   16    -152.5253091501      2.63E-08  00000
Finding J and K together
 Job number = 22, Threshold = 1.00E-11
Integral type ranges set in mkLRange.C for JobNum: 22  <1-6|1-6>
 MakeJK  time:  CPU       0.16 s  wall       0.16 s
Fock build time:  0.16 s (CPU) 0.17 s (wall)
DIIS Errors:  Max 5.86E-08 RMS 1.20E-08

Current DIIS subspace size = 15
REM_GRID_RESTART_DIIS = 0

   17    -152.5253091501      1.20E-08  00000
Finding J and K together
 Job number = 22, Threshold = 1.00E-11
Integral type ranges set in mkLRange.C for JobNum: 22  <1-6|1-6>
 MakeJK  time:  CPU       0.15 s  wall       0.15 s
Fock build time:  0.15 s (CPU) 0.15 s (wall)
DIIS Errors:  Max 1.05E-08 RMS 2.18E-09

Current DIIS subspace size = 15
REM_GRID_RESTART_DIIS = 0

   18    -152.5253091501      2.18E-09  00000 Convergence criterion met
 ---------------------------------------
 SCF time:  CPU 2.77 s  wall 2.82 s
 SCF   energy in the final basis set = -152.52530915
 Total energy in the final basis set = -152.52530915
drvman_main.C: 73: calling DrvMan  Calculating analytic gradient of the SCF energy
drvman.C : 218: Calculating analytic gradient of the SCF energy
drvman.C: 244: calling SCF_Grad for normal SCF gradient
 Job number = 111, Threshold = 1.00E-11
Integral type ranges set in mkLRange.C for JobNum: 11  <1-6|7-7>
Finding J and K together
 ML is being used
 Job number = 122, Threshold = 1.00E-11
Integral type ranges set in mkLRange.C for JobNum: 22  <1-6|1-6>
 MakeJK  time:  CPU       0.38 s  wall       0.38 s
 Gradient of SCF Energy
            1           2           3           4           5           6
    1   0.1016649  -0.0745554   0.0246130  -0.0472984   0.0278798  -0.0814574
    2  -0.0173157  -0.0435872   0.0228616   0.0380046  -0.0533744  -0.0049653
    3   0.0699420  -0.1353527   0.0400474  -0.0243961   0.0483047  -0.0560763
            7           8           9          10
    1  -0.0200559   0.0358885   0.0546701  -0.0213491
    2  -0.0163913   0.0384505   0.0019557   0.0343615
    3   0.0053782   0.0127091   0.0536536  -0.0142099
 Max gradient component =       1.354E-01
 RMS gradient           =       5.014E-02
drvman.C: 248: out of SCF_Grad for normal SCF gradient
 Gradient time:  CPU 0.40 s  wall 0.41 s
 ------------------------------------------------------------------------------
                     drvman        : Timing summary (seconds)
 ------------------------------------------------------------------------------
     job step          cpu (% of tot)      sys (% of tot)     wall (% of tot)
 ------------------------------------------------------------------------------
 ------------------------------------------------------------------------------
   Grand Totals     0.4000E+00          0.2000E-05          0.4051E+00
 ------------------------------------------------------------------------------
drvman_main.C: 77: out of DrvMan  Time for this dynamics step: 3.2 s (CPU) 3.3 s (wall)

TIME STEP #4 (t = 60.000 a.u. = 1.45133 fs)
--------------------------------------
 Instantaneous Temperature = 1471.6 K
 ----------------------------------------------------------------
             Standard Nuclear Orientation (Angstroms)
    I     Atom           X                Y                Z
 ----------------------------------------------------------------
    1      C       8.5033045126    -2.0206821122     0.7327996532
    2      C       7.4458290370    -1.3062585851     0.1588273997
    3      H       9.2119029606    -1.6336938138     1.4736039670
    4      H       8.4076487678    -2.9775102377     0.3251492487
    5      C       4.5926652778    -1.8290550705    -0.3759104107
    6      C       3.6579713142    -1.2818110738    -1.2534977913
    7      H       3.5065997111    -0.2316465276    -1.5350240351
    8      H       3.1802252304    -1.9182102743    -1.9393207157
    9      H       7.5970144239    -0.3773147926     0.8522188166
   10      H       4.1247503267    -2.4946192249     0.3084868911
 ----------------------------------------------------------------
 Nuclear Repulsion Energy =    84.0254145071 hartrees
 There are       15 alpha and       15 beta electrons

                       Distance Matrix (Angstroms)
             C (  1)   C (  2)   H (  3)   H (  4)   C (  5)   C (  6)
   C (  2)  1.399321
   H (  3)  1.095748  2.225953
   H (  4)  1.044437  1.935418  1.942065
   C (  5)  4.069282  2.949543  4.979581  4.045310
   C (  6)  5.288531  4.042663  6.197343  5.284596  1.394019
   H (  7)  5.771545  4.420571  6.600611  5.917795  2.252731  1.097732
   H (  8)  5.957004  4.792920  6.936147  5.794471  2.108836  1.050523
   H (  9)  1.880500  1.169010  2.138334  2.774157  3.555554  4.557216
   H ( 10)  4.424522  3.530462  5.289406  4.310067  1.063165  2.031891
             H (  7)   H (  8)   H (  9)
   H (  8)  1.764787
   H (  9)  4.738316  5.447484
   H ( 10)  2.983570  2.505397  4.103077

 Applying Cartesian multipole field
    Component          Value
    ---------          -----
     (2,0,0)        1.00000E-12
     (0,2,0)        2.00000E-11
     (0,0,2)       -3.00000E-11
 Nucleus-field energy     =     0.0000000081 hartrees
 ENuRep (before)= 84.0254145071
 ENucField = 0.0000000081
 ENuRep (after) = 84.0254145152
 Job number = 2, Threshold = 1.00E-11
Integral type ranges set in mkLRange.C for JobNum: 2  <1-6|1-6>
Symmetry turned off temporarily
Symmetry turned back on
 Job number = 11, Threshold = 1.00E-11
Integral type ranges set in mkLRange.C for JobNum: 11  <1-6|7-7>
 Smallest overlap matrix eigenvalue = 2.09E-01
 Multipole matrices computed through 2nd order
 Guess from superposition of atomic densities
 Warning:  Energy on first SCF cycle will be non-variational
 SAD guess density has 30.000000 electrons
 SCF convergence criterion is 10**(-8)
 A restricted Hartree-Fock SCF calculation will be
 performed using Pulay DIIS extrapolation
 SCF converges when DIIS error is below 1.0E-08
Finding J and K together
 Job number = 22, Threshold = 1.00E-11
Integral type ranges set in mkLRange.C for JobNum: 22  <1-6|1-6>
 MakeJK  time:  CPU       0.13 s  wall       0.13 s
Fock build time:  0.13 s (CPU) 0.13 s (wall)
DIIS Errors:  Max 9.90E-01 RMS 1.82E-01

Current DIIS subspace size = 1
REM_GRID_RESTART_DIIS = 0

 ---------------------------------------
  Cycle       Energy         DIIS Error
 ---------------------------------------
    1    -151.8861233688      1.82E-01  00000
Finding J and K together
 Job number = 22, Threshold = 1.00E-11
Integral type ranges set in mkLRange.C for JobNum: 22  <1-6|1-6>
 MakeJK  time:  CPU       0.17 s  wall       0.17 s
Fock build time:  0.17 s (CPU) 0.17 s (wall)
DIIS Errors:  Max 1.24E-01 RMS 2.23E-02

Current DIIS subspace size = 2
REM_GRID_RESTART_DIIS = 0

    2    -152.3828093126      2.23E-02  00000
Finding J and K together
 Job number = 22, Threshold = 1.00E-11
Integral type ranges set in mkLRange.C for JobNum: 22  <1-6|1-6>
 MakeJK  time:  CPU       0.16 s  wall       0.16 s
Fock build time:  0.16 s (CPU) 0.16 s (wall)
DIIS Errors:  Max 2.28E-01 RMS 4.05E-02

Current DIIS subspace size = 3
REM_GRID_RESTART_DIIS = 0

    3    -152.2341355234      4.05E-02  00000
Finding J and K together
 Job number = 22, Threshold = 1.00E-11
Integral type ranges set in mkLRange.C for JobNum: 22  <1-6|1-6>
 MakeJK  time:  CPU       0.16 s  wall       0.16 s
Fock build time:  0.16 s (CPU) 0.16 s (wall)
DIIS Errors:  Max 2.27E-02 RMS 4.11E-03

Current DIIS subspace size = 4
REM_GRID_RESTART_DIIS = 0

    4    -152.5341587662      4.11E-03  00000
Finding J and K together
 Job number = 22, Threshold = 1.00E-11
Integral type ranges set in mkLRange.C for JobNum: 22  <1-6|1-6>
 MakeJK  time:  CPU       0.16 s  wall       0.16 s
Fock build time:  0.16 s (CPU) 0.16 s (wall)
DIIS Errors:  Max 1.29E-02 RMS 2.47E-03

Current DIIS subspace size = 5
REM_GRID_RESTART_DIIS = 0

    5    -152.5373449243      2.47E-03  00000
Finding J and K together
 Job number = 22, Threshold = 1.00E-11
Integral type ranges set in mkLRange.C for JobNum: 22  <1-6|1-6>
 MakeJK  time:  CPU       0.15 s  wall       0.16 s
Fock build time:  0.15 s (CPU) 0.16 s (wall)
DIIS Errors:  Max 7.59E-03 RMS 1.30E-03

Current DIIS subspace size = 6
REM_GRID_RESTART_DIIS = 0

    6    -152.5386940946      1.30E-03  00000
Finding J and K together
 Job number = 22, Threshold = 1.00E-11
Integral type ranges set in mkLRange.C for JobNum: 22  <1-6|1-6>
 MakeJK  time:  CPU       0.14 s  wall       0.14 s
Fock build time:  0.14 s (CPU) 0.14 s (wall)
DIIS Errors:  Max 4.70E-03 RMS 6.78E-04

Current DIIS subspace size = 7
REM_GRID_RESTART_DIIS = 0

    7    -152.5392436387      6.78E-04  00000
Finding J and K together
 Job number = 22, Threshold = 1.00E-11
Integral type ranges set in mkLRange.C for JobNum: 22  <1-6|1-6>
 MakeJK  time:  CPU       0.16 s  wall       0.16 s
Fock build time:  0.16 s (CPU) 0.16 s (wall)
DIIS Errors:  Max 2.36E-03 RMS 2.95E-04

Current DIIS subspace size = 8
REM_GRID_RESTART_DIIS = 0

    8    -152.5394990719      2.95E-04  00000
Finding J and K together
 Job number = 22, Threshold = 1.00E-11
Integral type ranges set in mkLRange.C for JobNum: 22  <1-6|1-6>
 MakeJK  time:  CPU       0.16 s  wall       0.16 s
Fock build time:  0.16 s (CPU) 0.16 s (wall)
DIIS Errors:  Max 9.45E-04 RMS 1.77E-04

Current DIIS subspace size = 9
REM_GRID_RESTART_DIIS = 0

    9    -152.5396062885      1.77E-04  00000
Finding J and K together
 Job number = 22, Threshold = 1.00E-11
Integral type ranges set in mkLRange.C for JobNum: 22  <1-6|1-6>
 MakeJK  time:  CPU       0.16 s  wall       0.18 s
Fock build time:  0.16 s (CPU) 0.18 s (wall)
DIIS Errors:  Max 1.42E-04 RMS 2.23E-05

Current DIIS subspace size = 10
REM_GRID_RESTART_DIIS = 0

   10    -152.5396142570      2.23E-05  00000
Finding J and K together
 Job number = 22, Threshold = 1.00E-11
Integral type ranges set in mkLRange.C for JobNum: 22  <1-6|1-6>
 MakeJK  time:  CPU       0.15 s  wall       0.16 s
Fock build time:  0.15 s (CPU) 0.16 s (wall)
DIIS Errors:  Max 4.02E-05 RMS 9.64E-06

Current DIIS subspace size = 11
REM_GRID_RESTART_DIIS = 0

   11    -152.5396145344      9.64E-06  00000
Finding J and K together
 Job number = 22, Threshold = 1.00E-11
Integral type ranges set in mkLRange.C for JobNum: 22  <1-6|1-6>
 MakeJK  time:  CPU       0.16 s  wall       0.16 s
Fock build time:  0.16 s (CPU) 0.16 s (wall)
DIIS Errors:  Max 2.71E-05 RMS 3.93E-06

Current DIIS subspace size = 12
REM_GRID_RESTART_DIIS = 0

   12    -152.5396145877      3.93E-06  00000
Finding J and K together
 Job number = 22, Threshold = 1.00E-11
Integral type ranges set in mkLRange.C for JobNum: 22  <1-6|1-6>
 MakeJK  time:  CPU       0.16 s  wall       0.16 s
Fock build time:  0.16 s (CPU) 0.16 s (wall)
DIIS Errors:  Max 9.61E-06 RMS 1.56E-06

Current DIIS subspace size = 13
REM_GRID_RESTART_DIIS = 0

   13    -152.5396145990      1.56E-06  00000
Finding J and K together
 Job number = 22, Threshold = 1.00E-11
Integral type ranges set in mkLRange.C for JobNum: 22  <1-6|1-6>
 MakeJK  time:  CPU       0.16 s  wall       0.16 s
Fock build time:  0.16 s (CPU) 0.16 s (wall)
DIIS Errors:  Max 2.91E-06 RMS 5.31E-07

Current DIIS subspace size = 14
REM_GRID_RESTART_DIIS = 0

   14    -152.5396146024      5.31E-07  00000
Finding J and K together
 Job number = 22, Threshold = 1.00E-11
Integral type ranges set in mkLRange.C for JobNum: 22  <1-6|1-6>
 MakeJK  time:  CPU       0.14 s  wall       0.15 s
Fock build time:  0.14 s (CPU) 0.15 s (wall)
DIIS Errors:  Max 8.06E-07 RMS 1.10E-07

Current DIIS subspace size = 15
REM_GRID_RESTART_DIIS = 0

   15    -152.5396146027      1.10E-07  00000
Finding J and K together
 Job number = 22, Threshold = 1.00E-11
Integral type ranges set in mkLRange.C for JobNum: 22  <1-6|1-6>
 MakeJK  time:  CPU       0.13 s  wall       0.13 s
Fock build time:  0.13 s (CPU) 0.13 s (wall)
DIIS Errors:  Max 1.47E-07 RMS 2.75E-08

Current DIIS subspace size = 15
REM_GRID_RESTART_DIIS = 0

   16    -152.5396146027      2.75E-08  00000
Finding J and K together
 Job number = 22, Threshold = 1.00E-11
Integral type ranges set in mkLRange.C for JobNum: 22  <1-6|1-6>
 MakeJK  time:  CPU       0.14 s  wall       0.14 s
Fock build time:  0.14 s (CPU) 0.14 s (wall)
DIIS Errors:  Max 6.08E-08 RMS 1.23E-08

Current DIIS subspace size = 15
REM_GRID_RESTART_DIIS = 0

   17    -152.5396146027      1.23E-08  00000
Finding J and K together
 Job number = 22, Threshold = 1.00E-11
Integral type ranges set in mkLRange.C for JobNum: 22  <1-6|1-6>
 MakeJK  time:  CPU       0.12 s  wall       0.12 s
Fock build time:  0.12 s (CPU) 0.12 s (wall)
DIIS Errors:  Max 1.06E-08 RMS 2.15E-09

Current DIIS subspace size = 15
REM_GRID_RESTART_DIIS = 0

   18    -152.5396146027      2.15E-09  00000 Convergence criterion met
 ---------------------------------------
 SCF time:  CPU 2.75 s  wall 2.78 s
 SCF   energy in the final basis set = -152.53961460
 Total energy in the final basis set = -152.53961460
drvman_main.C: 73: calling DrvMan  Calculating analytic gradient of the SCF energy
drvman.C : 218: Calculating analytic gradient of the SCF energy
drvman.C: 244: calling SCF_Grad for normal SCF gradient
 Job number = 111, Threshold = 1.00E-11
Integral type ranges set in mkLRange.C for JobNum: 11  <1-6|7-7>
Finding J and K together
 ML is being used
 Job number = 122, Threshold = 1.00E-11
Integral type ranges set in mkLRange.C for JobNum: 22  <1-6|1-6>
 MakeJK  time:  CPU       0.33 s  wall       0.34 s
 Gradient of SCF Energy
            1           2           3           4           5           6
    1   0.1172104  -0.0678977   0.0030641  -0.0413625   0.0199719  -0.0778870
    2  -0.0317666  -0.0322528   0.0107944   0.0554147  -0.0671283  -0.0214937
    3   0.0782999  -0.1260746   0.0171993  -0.0130571   0.0632832  -0.0487206
            7           8           9          10
    1  -0.0226713   0.0326800   0.0494901  -0.0125979
    2   0.0057801   0.0332921  -0.0002947   0.0476548
    3   0.0008522   0.0075671   0.0476989  -0.0270483
 Max gradient component =       1.261E-01
 RMS gradient           =       5.042E-02
drvman.C: 248: out of SCF_Grad for normal SCF gradient
 Gradient time:  CPU 0.35 s  wall 0.36 s
 ------------------------------------------------------------------------------
                     drvman        : Timing summary (seconds)
 ------------------------------------------------------------------------------
     job step          cpu (% of tot)      sys (% of tot)     wall (% of tot)
 ------------------------------------------------------------------------------
 ------------------------------------------------------------------------------
   Grand Totals     0.3480E+00          0.3000E-05          0.3627E+00
 ------------------------------------------------------------------------------
drvman_main.C: 77: out of DrvMan  Time for this dynamics step: 3.1 s (CPU) 3.2 s (wall)

TIME STEP #5 (t = 80.000 a.u. = 1.93511 fs)
--------------------------------------
 Instantaneous Temperature = 1770.6 K
 ----------------------------------------------------------------
             Standard Nuclear Orientation (Angstroms)
    I     Atom           X                Y                Z
 ----------------------------------------------------------------
    1      C       8.5006773898    -2.0219641640     0.7297405913
    2      C       7.4441690306    -1.3065619845     0.1673118607
    3      H       9.1763517211    -1.6397124879     1.4376728138
    4      H       8.4530960674    -2.9716545582     0.3425175096
    5      C       4.5945174173    -1.8271714235    -0.3771363802
    6      C       3.6601851930    -1.2853280363    -1.2543529529
    7      H       3.5179397550    -0.2081325627    -1.5345171935
    8      H       3.1540845551    -1.9197831302    -1.9414590534
    9      H       7.5665643568    -0.3734676059     0.8250098233
   10      H       4.1627376819    -2.4819194115     0.3160708418
 ----------------------------------------------------------------
 Nuclear Repulsion Energy =    84.2960849406 hartrees
 There are       15 alpha and       15 beta electrons

                       Distance Matrix (Angstroms)
             C (  1)   C (  2)   H (  3)   H (  4)   C (  5)   C (  6)
   C (  2)  1.394395
   H (  3)  1.050628  2.173767
   H (  4)  1.026702  1.954780  1.869902
   C (  5)  4.064629  2.947537  4.931722  4.088566
   C (  6)  5.282956  4.042291  6.148226  5.325945  1.391431
   H (  7)  5.765806  4.417923  6.549882  5.959537  2.262706  1.122085
   H (  8)  5.977609  4.819521  6.911199  5.865365  2.128504  1.063384
   H (  9)  1.897152  1.148134  2.137790  2.787349  3.520152  4.518300
   H ( 10)  4.381826  3.488751  5.206115  4.318300  1.046740  2.037307
             H (  7)   H (  8)   H (  9)
   H (  8)  1.796591
   H (  9)  4.688930  5.432718
   H ( 10)  3.001757  2.535709  4.036165

 Applying Cartesian multipole field
    Component          Value
    ---------          -----
     (2,0,0)        1.00000E-12
     (0,2,0)        2.00000E-11
     (0,0,2)       -3.00000E-11
 Nucleus-field energy     =     0.0000000081 hartrees
 ENuRep (before)= 84.2960849406
 ENucField = 0.0000000081
 ENuRep (after) = 84.2960849488
 Job number = 2, Threshold = 1.00E-11
Integral type ranges set in mkLRange.C for JobNum: 2  <1-6|1-6>
Symmetry turned off temporarily
Symmetry turned back on
 Job number = 11, Threshold = 1.00E-11
Integral type ranges set in mkLRange.C for JobNum: 11  <1-6|7-7>
 Smallest overlap matrix eigenvalue = 2.03E-01
 Multipole matrices computed through 2nd order
 Guess from superposition of atomic densities
 Warning:  Energy on first SCF cycle will be non-variational
 SAD guess density has 30.000000 electrons
 SCF convergence criterion is 10**(-8)
 A restricted Hartree-Fock SCF calculation will be
 performed using Pulay DIIS extrapolation
 SCF converges when DIIS error is below 1.0E-08
Finding J and K together
 Job number = 22, Threshold = 1.00E-11
Integral type ranges set in mkLRange.C for JobNum: 22  <1-6|1-6>
 MakeJK  time:  CPU       0.14 s  wall       0.15 s
Fock build time:  0.14 s (CPU) 0.15 s (wall)
DIIS Errors:  Max 1.00E+00 RMS 1.85E-01

Current DIIS subspace size = 1
REM_GRID_RESTART_DIIS = 0

 ---------------------------------------
  Cycle       Energy         DIIS Error
 ---------------------------------------
    1    -151.9443121571      1.85E-01  00000
Finding J and K together
 Job number = 22, Threshold = 1.00E-11
Integral type ranges set in mkLRange.C for JobNum: 22  <1-6|1-6>
 MakeJK  time:  CPU       0.13 s  wall       0.13 s
Fock build time:  0.13 s (CPU) 0.13 s (wall)
DIIS Errors:  Max 1.25E-01 RMS 2.23E-02

Current DIIS subspace size = 2
REM_GRID_RESTART_DIIS = 0

    2    -152.3949693258      2.23E-02  00000
Finding J and K together
 Job number = 22, Threshold = 1.00E-11
Integral type ranges set in mkLRange.C for JobNum: 22  <1-6|1-6>
 MakeJK  time:  CPU       0.14 s  wall       0.14 s
Fock build time:  0.14 s (CPU) 0.14 s (wall)
DIIS Errors:  Max 2.31E-01 RMS 4.07E-02

Current DIIS subspace size = 3
REM_GRID_RESTART_DIIS = 0

    3    -152.2485454935      4.07E-02  00000
Finding J and K together
 Job number = 22, Threshold = 1.00E-11
Integral type ranges set in mkLRange.C for JobNum: 22  <1-6|1-6>
 MakeJK  time:  CPU       0.16 s  wall       0.16 s
Fock build time:  0.16 s (CPU) 0.16 s (wall)
DIIS Errors:  Max 2.33E-02 RMS 4.24E-03

Current DIIS subspace size = 4
REM_GRID_RESTART_DIIS = 0

    4    -152.5459019564      4.24E-03  00000
Finding J and K together
 Job number = 22, Threshold = 1.00E-11
Integral type ranges set in mkLRange.C for JobNum: 22  <1-6|1-6>
 MakeJK  time:  CPU       0.16 s  wall       0.16 s
Fock build time:  0.16 s (CPU) 0.16 s (wall)
DIIS Errors:  Max 1.35E-02 RMS 2.57E-03

Current DIIS subspace size = 5
REM_GRID_RESTART_DIIS = 0

    5    -152.5490434488      2.57E-03  00000
Finding J and K together
 Job number = 22, Threshold = 1.00E-11
Integral type ranges set in mkLRange.C for JobNum: 22  <1-6|1-6>
 MakeJK  time:  CPU       0.14 s  wall       0.14 s
Fock build time:  0.14 s (CPU) 0.14 s (wall)
DIIS Errors:  Max 7.56E-03 RMS 1.32E-03

Current DIIS subspace size = 6
REM_GRID_RESTART_DIIS = 0

    6    -152.5504572056      1.32E-03  00000
Finding J and K together
 Job number = 22, Threshold = 1.00E-11
Integral type ranges set in mkLRange.C for JobNum: 22  <1-6|1-6>
 MakeJK  time:  CPU       0.13 s  wall       0.13 s
Fock build time:  0.13 s (CPU) 0.13 s (wall)
DIIS Errors:  Max 4.74E-03 RMS 6.86E-04

Current DIIS subspace size = 7
REM_GRID_RESTART_DIIS = 0

    7    -152.5510118925      6.86E-04  00000
Finding J and K together
 Job number = 22, Threshold = 1.00E-11
Integral type ranges set in mkLRange.C for JobNum: 22  <1-6|1-6>
 MakeJK  time:  CPU       0.12 s  wall       0.12 s
Fock build time:  0.12 s (CPU) 0.12 s (wall)
DIIS Errors:  Max 2.35E-03 RMS 2.93E-04

Current DIIS subspace size = 8
REM_GRID_RESTART_DIIS = 0

    8    -152.5512811383      2.93E-04  00000
Finding J and K together
 Job number = 22, Threshold = 1.00E-11
Integral type ranges set in mkLRange.C for JobNum: 22  <1-6|1-6>
 MakeJK  time:  CPU       0.12 s  wall       0.12 s
Fock build time:  0.12 s (CPU) 0.12 s (wall)
DIIS Errors:  Max 9.91E-04 RMS 1.82E-04

Current DIIS subspace size = 9
REM_GRID_RESTART_DIIS = 0

    9    -152.5513900010      1.82E-04  00000
Finding J and K together
 Job number = 22, Threshold = 1.00E-11
Integral type ranges set in mkLRange.C for JobNum: 22  <1-6|1-6>
 MakeJK  time:  CPU       0.15 s  wall       0.15 s
Fock build time:  0.15 s (CPU) 0.15 s (wall)
DIIS Errors:  Max 1.44E-04 RMS 2.13E-05

Current DIIS subspace size = 10
REM_GRID_RESTART_DIIS = 0

   10    -152.5513976036      2.13E-05  00000
Finding J and K together
 Job number = 22, Threshold = 1.00E-11
Integral type ranges set in mkLRange.C for JobNum: 22  <1-6|1-6>
 MakeJK  time:  CPU       0.13 s  wall       0.14 s
Fock build time:  0.13 s (CPU) 0.15 s (wall)
DIIS Errors:  Max 4.38E-05 RMS 9.95E-06

Current DIIS subspace size = 11
REM_GRID_RESTART_DIIS = 0

   11    -152.5513978531      9.95E-06  00000
Finding J and K together
 Job number = 22, Threshold = 1.00E-11
Integral type ranges set in mkLRange.C for JobNum: 22  <1-6|1-6>
 MakeJK  time:  CPU       0.14 s  wall       0.15 s
Fock build time:  0.14 s (CPU) 0.15 s (wall)
DIIS Errors:  Max 2.33E-05 RMS 3.45E-06

Current DIIS subspace size = 12
REM_GRID_RESTART_DIIS = 0

   12    -152.5513978958      3.45E-06  00000
Finding J and K together
 Job number = 22, Threshold = 1.00E-11
Integral type ranges set in mkLRange.C for JobNum: 22  <1-6|1-6>
 MakeJK  time:  CPU       0.13 s  wall       0.13 s
Fock build time:  0.13 s (CPU) 0.13 s (wall)
DIIS Errors:  Max 7.98E-06 RMS 1.26E-06

Current DIIS subspace size = 13
REM_GRID_RESTART_DIIS = 0

   13    -152.5513979024      1.26E-06  00000
Finding J and K together
 Job number = 22, Threshold = 1.00E-11
Integral type ranges set in mkLRange.C for JobNum: 22  <1-6|1-6>
 MakeJK  time:  CPU       0.12 s  wall       0.13 s
Fock build time:  0.12 s (CPU) 0.13 s (wall)
DIIS Errors:  Max 2.56E-06 RMS 4.81E-07

Current DIIS subspace size = 14
REM_GRID_RESTART_DIIS = 0

   14    -152.5513979045      4.81E-07  00000
Finding J and K together
 Job number = 22, Threshold = 1.00E-11
Integral type ranges set in mkLRange.C for JobNum: 22  <1-6|1-6>
 MakeJK  time:  CPU       0.12 s  wall       0.11 s
Fock build time:  0.12 s (CPU) 0.11 s (wall)
DIIS Errors:  Max 7.62E-07 RMS 1.02E-07

Current DIIS subspace size = 15
REM_GRID_RESTART_DIIS = 0

   15    -152.5513979047      1.02E-07  00000
Finding J and K together
 Job number = 22, Threshold = 1.00E-11
Integral type ranges set in mkLRange.C for JobNum: 22  <1-6|1-6>
 MakeJK  time:  CPU       0.13 s  wall       0.13 s
Fock build time:  0.13 s (CPU) 0.13 s (wall)
DIIS Errors:  Max 1.33E-07 RMS 2.55E-08

Current DIIS subspace size = 15
REM_GRID_RESTART_DIIS = 0

   16    -152.5513979047      2.55E-08  00000
Finding J and K together
 Job number = 22, Threshold = 1.00E-11
Integral type ranges set in mkLRange.C for JobNum: 22  <1-6|1-6>
 MakeJK  time:  CPU       0.14 s  wall       0.14 s
Fock build time:  0.14 s (CPU) 0.14 s (wall)
DIIS Errors:  Max 5.73E-08 RMS 1.19E-08

Current DIIS subspace size = 15
REM_GRID_RESTART_DIIS = 0

   17    -152.5513979047      1.19E-08  00000
Finding J and K together
 Job number = 22, Threshold = 1.00E-11
Integral type ranges set in mkLRange.C for JobNum: 22  <1-6|1-6>
 MakeJK  time:  CPU       0.10 s  wall       0.10 s
Fock build time:  0.10 s (CPU) 0.10 s (wall)
DIIS Errors:  Max 9.17E-09 RMS 1.87E-09

Current DIIS subspace size = 15
REM_GRID_RESTART_DIIS = 0

   18    -152.5513979047      1.87E-09  00000 Convergence criterion met
 ---------------------------------------
 SCF time:  CPU 2.43 s  wall 2.49 s
 SCF   energy in the final basis set = -152.55139790
 Total energy in the final basis set = -152.55139790
drvman_main.C: 73: calling DrvMan  Calculating analytic gradient of the SCF energy
drvman.C : 218: Calculating analytic gradient of the SCF energy
drvman.C: 244: calling SCF_Grad for normal SCF gradient
 Job number = 111, Threshold = 1.00E-11
Integral type ranges set in mkLRange.C for JobNum: 11  <1-6|7-7>
Finding J and K together
 ML is being used
[...]
   H (  4)  1.097598  2.287997  1.755429
   C (  5)  2.837680  1.780619  3.977706  3.188203
   C (  6)  3.672323  2.733760  4.768475  4.088699  1.398321
   H (  7)  3.642212  2.820894  4.588028  4.240557  2.138473  1.085484
   H (  8)  4.518284  3.629032  5.656813  4.779501  2.028240  1.001500
   H (  9)  1.301075  2.225728  1.981260  1.580600  3.040849  3.421208
   H ( 10)  2.937641  2.312439  4.087466  2.863828  1.243581  2.400240
             H (  7)   H (  8)   H (  9)
   H (  8)  1.869555
   H (  9)  3.215971  4.207244
   H ( 10)  3.237924  2.699411  3.251433

 Applying Cartesian multipole field
    Component          Value
    ---------          -----
     (2,0,0)        1.00000E-12
     (0,2,0)        2.00000E-11
     (0,0,2)       -3.00000E-11
 Nucleus-field energy     =     0.0000000080 hartrees
 ENuRep (before)= 95.2918908574
 ENucField = 0.0000000080
 ENuRep (after) = 95.2918908654
 Job number = 2, Threshold = 1.00E-11
Integral type ranges set in mkLRange.C for JobNum: 2  <1-6|1-6>
Symmetry turned off temporarily
Symmetry turned back on
 Job number = 11, Threshold = 1.00E-11
Integral type ranges set in mkLRange.C for JobNum: 11  <1-6|7-7>
 Smallest overlap matrix eigenvalue = 2.10E-01
 Multipole matrices computed through 2nd order
 Extrapolating the Fock matrix using 12 points and a 6th-order polynomial
 Alpha Fock matrix extrapolation
 Skip SCF guess (diagonalize extrapolated Fock matrix instead)
 SCF convergence criterion is 10**(-8)
 A restricted Hartree-Fock SCF calculation will be
 performed using Pulay DIIS extrapolation
 SCF converges when DIIS error is below 1.0E-08
Extrapolated Fock matrix used in lieu of Fock build
Fock build time:  0.00 s (CPU) 0.00 s (wall)
DIIS Errors:  Max 5.28E-02 RMS 7.44E-03

Current DIIS subspace size = 1
REM_GRID_RESTART_DIIS = 0

 ---------------------------------------
  Cycle       Energy         DIIS Error
 ---------------------------------------
    1    -300.4045805650      7.44E-03  00000
Finding J and K together
 Job number = 22, Threshold = 1.00E-11
Integral type ranges set in mkLRange.C for JobNum: 22  <1-6|1-6>
 MakeJK  time:  CPU       0.19 s  wall       0.20 s
Fock build time:  0.20 s (CPU) 0.20 s (wall)
DIIS Errors:  Max 8.95E-03 RMS 8.81E-04

Current DIIS subspace size = 2
REM_GRID_RESTART_DIIS = 0

    2    -152.7427419949      8.81E-04  00000
Finding J and K together
 Job number = 22, Threshold = 1.00E-11
Integral type ranges set in mkLRange.C for JobNum: 22  <1-6|1-6>
 MakeJK  time:  CPU       0.15 s  wall       0.15 s
Fock build time:  0.15 s (CPU) 0.15 s (wall)
DIIS Errors:  Max 6.58E-04 RMS 8.89E-05

Current DIIS subspace size = 3
REM_GRID_RESTART_DIIS = 0

    3    -152.7427591610      8.89E-05  00000
Finding J and K together
 Job number = 22, Threshold = 1.00E-11
Integral type ranges set in mkLRange.C for JobNum: 22  <1-6|1-6>
 MakeJK  time:  CPU       0.15 s  wall       0.15 s
Fock build time:  0.15 s (CPU) 0.15 s (wall)
DIIS Errors:  Max 1.76E-04 RMS 2.57E-05

Current DIIS subspace size = 4
REM_GRID_RESTART_DIIS = 0

    4    -152.7427598026      2.57E-05  00000
Finding J and K together
 Job number = 22, Threshold = 1.00E-11
Integral type ranges set in mkLRange.C for JobNum: 22  <1-6|1-6>
 MakeJK  time:  CPU       0.19 s  wall       0.19 s
Fock build time:  0.19 s (CPU) 0.19 s (wall)
DIIS Errors:  Max 1.09E-04 RMS 1.20E-05

Current DIIS subspace size = 5
REM_GRID_RESTART_DIIS = 0

    5    -152.7427599114      1.20E-05  00000
Finding J and K together
 Job number = 22, Threshold = 1.00E-11
Integral type ranges set in mkLRange.C for JobNum: 22  <1-6|1-6>
 MakeJK  time:  CPU       0.16 s  wall       0.16 s
Fock build time:  0.16 s (CPU) 0.16 s (wall)
DIIS Errors:  Max 8.53E-05 RMS 6.27E-06

Current DIIS subspace size = 6
REM_GRID_RESTART_DIIS = 0

    6    -152.7427599671      6.27E-06  00000
Finding J and K together
 Job number = 22, Threshold = 1.00E-11
Integral type ranges set in mkLRange.C for JobNum: 22  <1-6|1-6>
 MakeJK  time:  CPU       0.18 s  wall       0.18 s
Fock build time:  0.18 s (CPU) 0.18 s (wall)
DIIS Errors:  Max 6.44E-05 RMS 4.44E-06

Current DIIS subspace size = 7
REM_GRID_RESTART_DIIS = 0

    7    -152.7427599965      4.44E-06  00000
Finding J and K together
 Job number = 22, Threshold = 1.00E-11
Integral type ranges set in mkLRange.C for JobNum: 22  <1-6|1-6>
 MakeJK  time:  CPU       0.19 s  wall       0.19 s
Fock build time:  0.19 s (CPU) 0.19 s (wall)
DIIS Errors:  Max 3.12E-05 RMS 2.30E-06

Current DIIS subspace size = 8
REM_GRID_RESTART_DIIS = 0

    8    -152.7427600247      2.30E-06  00000
Finding J and K together
 Job number = 22, Threshold = 1.00E-11
Integral type ranges set in mkLRange.C for JobNum: 22  <1-6|1-6>
 MakeJK  time:  CPU       0.19 s  wall       0.19 s
Fock build time:  0.19 s (CPU) 0.19 s (wall)
DIIS Errors:  Max 8.44E-06 RMS 8.05E-07

Current DIIS subspace size = 9
REM_GRID_RESTART_DIIS = 0

    9    -152.7427600332      8.05E-07  00000
Finding J and K together
 Job number = 22, Threshold = 1.00E-11
Integral type ranges set in mkLRange.C for JobNum: 22  <1-6|1-6>
 MakeJK  time:  CPU       0.19 s  wall       0.19 s
Fock build time:  0.19 s (CPU) 0.19 s (wall)
DIIS Errors:  Max 1.14E-06 RMS 2.01E-07

Current DIIS subspace size = 10
REM_GRID_RESTART_DIIS = 0

   10    -152.7427600340      2.01E-07  00000
Finding J and K together
 Job number = 22, Threshold = 1.00E-11
Integral type ranges set in mkLRange.C for JobNum: 22  <1-6|1-6>
 MakeJK  time:  CPU       0.18 s  wall       0.19 s
Fock build time:  0.18 s (CPU) 0.19 s (wall)
DIIS Errors:  Max 2.08E-07 RMS 4.37E-08

Current DIIS subspace size = 11
REM_GRID_RESTART_DIIS = 0

   11    -152.7427600340      4.37E-08  00000
Finding J and K together
 Job number = 22, Threshold = 1.00E-11
Integral type ranges set in mkLRange.C for JobNum: 22  <1-6|1-6>
 MakeJK  time:  CPU       0.17 s  wall       0.17 s
Fock build time:  0.17 s (CPU) 0.17 s (wall)
DIIS Errors:  Max 9.93E-08 RMS 1.41E-08

Current DIIS subspace size = 12
REM_GRID_RESTART_DIIS = 0

   12    -152.7427600340      1.41E-08  00000
Finding J and K together
 Job number = 22, Threshold = 1.00E-11
Integral type ranges set in mkLRange.C for JobNum: 22  <1-6|1-6>
 MakeJK  time:  CPU       0.19 s  wall       0.20 s
Fock build time:  0.19 s (CPU) 0.20 s (wall)
DIIS Errors:  Max 1.86E-08 RMS 2.41E-09

Current DIIS subspace size = 13
REM_GRID_RESTART_DIIS = 0

   13    -152.7427600340      2.41E-09  00000 Convergence criterion met
 ---------------------------------------
 SCF time:  CPU 2.14 s  wall 2.17 s
 SCF   energy in the final basis set = -152.74276003
 Total energy in the final basis set = -152.74276003
drvman_main.C: 73: calling DrvMan  Calculating analytic gradient of the SCF energy
drvman.C : 218: Calculating analytic gradient of the SCF energy
drvman.C: 244: calling SCF_Grad for normal SCF gradient
 Job number = 111, Threshold = 1.00E-11
Integral type ranges set in mkLRange.C for JobNum: 11  <1-6|7-7>
Finding J and K together
 ML is being used
 Job number = 122, Threshold = 1.00E-11
Integral type ranges set in mkLRange.C for JobNum: 22  <1-6|1-6>
 MakeJK  time:  CPU       0.48 s  wall       0.50 s
 Gradient of SCF Energy
            1           2           3           4           5           6
    1  -0.1170061   0.1031045   0.0783789   0.0258877  -0.1563141  -0.0933451
    2   0.0845762  -0.0113030   0.0078240   0.0020672   0.0275515  -0.0207051
    3   0.1291184   0.0121683   0.0160169  -0.0371547   0.0240910  -0.1563038
            7           8           9          10
    1   0.0208761   0.0635609   0.0166804   0.0581768
    2  -0.0043513   0.0483232  -0.0601148  -0.0738679
    3   0.0011877   0.0493790  -0.0851394   0.0466366
 Max gradient component =       1.563E-01
 RMS gradient           =       7.017E-02
drvman.C: 248: out of SCF_Grad for normal SCF gradient
 Gradient time:  CPU 0.50 s  wall 0.52 s
 ------------------------------------------------------------------------------
                     drvman        : Timing summary (seconds)
 ------------------------------------------------------------------------------
     job step          cpu (% of tot)      sys (% of tot)     wall (% of tot)
 ------------------------------------------------------------------------------
 ------------------------------------------------------------------------------
   Grand Totals     0.4960E+00          0.1000E-05          0.5225E+00
 ------------------------------------------------------------------------------
drvman_main.C: 77: out of DrvMan  Time for this dynamics step: 2.7 s (CPU) 2.8 s (wall)

TIME STEP #400 (t = 7980.000 a.u. = 193.02697 fs)
--------------------------------------
 Instantaneous Temperature = 6042.9 K
 ----------------------------------------------------------------
             Standard Nuclear Orientation (Angstroms)
    I     Atom           X                Y                Z
 ----------------------------------------------------------------
    1      C       7.8173476998    -1.5926069737     0.4275209779
    2      C       6.4541171923    -0.9993247515     0.4970821500
    3      H       8.8101003714    -1.0642013958     0.6439119825
    4      H       8.0685072229    -2.6525842945     0.6756382469
    5      C       5.0378145628    -1.9265356923    -0.0745484368
    6      C       4.6285751887    -1.7284915495    -1.4061456405
    7      H       5.1651733474    -0.9740944835    -1.9804068358
    8      H       3.8876770910    -2.3198362400    -1.7266513081
    9      H       8.0170756082    -1.8803888101    -0.7819181239
   10      H       5.1981753723    -3.0142713878     0.4911967734
 ----------------------------------------------------------------
 Nuclear Repulsion Energy =    95.1101894607 hartrees
 There are       15 alpha and       15 beta electrons

                       Distance Matrix (Angstroms)
             C (  1)   C (  2)   H (  3)   H (  4)   C (  5)   C (  6)
   C (  2)  1.488362
   H (  3)  1.145249  2.361445
   H (  4)  1.117227  2.317629  1.753262
   C (  5)  2.844185  1.786727  3.935727  3.205468
   C (  6)  3.680906  2.736159  4.704165  4.125640  1.407071
   H (  7)  3.635203  2.792842  4.492289  4.277996  2.134399  1.089417
   H (  8)  4.540003  3.643536  5.605929  4.833328  2.051084  1.000671
   H (  9)  1.259148  2.203396  1.824292  1.650273  3.062433  3.448865
   H ( 10)  2.980813  2.374328  4.107566  2.898903  1.236508  2.361691
             H (  7)   H (  8)   H (  9)
   H (  8)  1.872808
   H (  9)  3.223522  4.258822
   H ( 10)  3.205033  2.668051  3.294345

 Applying Cartesian multipole field
    Component          Value
    ---------          -----
     (2,0,0)        1.00000E-12
     (0,2,0)        2.00000E-11
     (0,0,2)       -3.00000E-11
 Nucleus-field energy     =     0.0000000080 hartrees
 ENuRep (before)= 95.1101894607
 ENucField = 0.0000000080
 ENuRep (after) = 95.1101894688
 Job number = 2, Threshold = 1.00E-11
Integral type ranges set in mkLRange.C for JobNum: 2  <1-6|1-6>
Symmetry turned off temporarily
Symmetry turned back on
 Job number = 11, Threshold = 1.00E-11
Integral type ranges set in mkLRange.C for JobNum: 11  <1-6|7-7>
 Smallest overlap matrix eigenvalue = 2.13E-01
 Multipole matrices computed through 2nd order
 Extrapolating the Fock matrix using 12 points and a 6th-order polynomial
 Alpha Fock matrix extrapolation
 Skip SCF guess (diagonalize extrapolated Fock matrix instead)
 SCF convergence criterion is 10**(-8)
 A restricted Hartree-Fock SCF calculation will be
 performed using Pulay DIIS extrapolation
 SCF converges when DIIS error is below 1.0E-08
Extrapolated Fock matrix used in lieu of Fock build
Fock build time:  0.00 s (CPU) 0.00 s (wall)
DIIS Errors:  Max 5.74E-02 RMS 7.84E-03

Current DIIS subspace size = 1
REM_GRID_RESTART_DIIS = 0

 ---------------------------------------
  Cycle       Energy         DIIS Error
 ---------------------------------------
    1    -300.1720300343      7.84E-03  00000
Finding J and K together
 Job number = 22, Threshold = 1.00E-11
Integral type ranges set in mkLRange.C for JobNum: 22  <1-6|1-6>
 MakeJK  time:  CPU       0.18 s  wall       0.19 s
Fock build time:  0.18 s (CPU) 0.19 s (wall)
DIIS Errors:  Max 1.35E-02 RMS 1.11E-03

Current DIIS subspace size = 2
REM_GRID_RESTART_DIIS = 0

    2    -152.7645052673      1.11E-03  00000
Finding J and K together
 Job number = 22, Threshold = 1.00E-11
Integral type ranges set in mkLRange.C for JobNum: 22  <1-6|1-6>
 MakeJK  time:  CPU       0.18 s  wall       0.18 s
Fock build time:  0.18 s (CPU) 0.18 s (wall)
DIIS Errors:  Max 1.15E-03 RMS 1.08E-04

Current DIIS subspace size = 3
REM_GRID_RESTART_DIIS = 0

    3    -152.7645277933      1.08E-04  00000
Finding J and K together
 Job number = 22, Threshold = 1.00E-11
Integral type ranges set in mkLRange.C for JobNum: 22  <1-6|1-6>
 MakeJK  time:  CPU       0.19 s  wall       0.19 s
Fock build time:  0.19 s (CPU) 0.19 s (wall)
DIIS Errors:  Max 1.55E-04 RMS 1.78E-05

Current DIIS subspace size = 4
REM_GRID_RESTART_DIIS = 0

    4    -152.7645284109      1.78E-05  00000
Finding J and K together
 Job number = 22, Threshold = 1.00E-11
Integral type ranges set in mkLRange.C for JobNum: 22  <1-6|1-6>
 MakeJK  time:  CPU       0.19 s  wall       0.19 s
Fock build time:  0.19 s (CPU) 0.19 s (wall)
DIIS Errors:  Max 1.26E-04 RMS 1.14E-05

Current DIIS subspace size = 5
REM_GRID_RESTART_DIIS = 0

    5    -152.7645285027      1.14E-05  00000
Finding J and K together
 Job number = 22, Threshold = 1.00E-11
Integral type ranges set in mkLRange.C for JobNum: 22  <1-6|1-6>
 MakeJK  time:  CPU       0.18 s  wall       0.18 s
Fock build time:  0.18 s (CPU) 0.18 s (wall)
DIIS Errors:  Max 1.02E-04 RMS 7.03E-06

Current DIIS subspace size = 6
REM_GRID_RESTART_DIIS = 0

    6    -152.7645285594      7.03E-06  00000
Finding J and K together
 Job number = 22, Threshold = 1.00E-11
Integral type ranges set in mkLRange.C for JobNum: 22  <1-6|1-6>
 MakeJK  time:  CPU       0.18 s  wall       0.19 s
Fock build time:  0.18 s (CPU) 0.19 s (wall)
DIIS Errors:  Max 6.57E-05 RMS 4.54E-06

Current DIIS subspace size = 7
REM_GRID_RESTART_DIIS = 0

    7    -152.7645286125      4.54E-06  00000
Finding J and K together
 Job number = 22, Threshold = 1.00E-11
Integral type ranges set in mkLRange.C for JobNum: 22  <1-6|1-6>
 MakeJK  time:  CPU       0.18 s  wall       0.18 s
Fock build time:  0.18 s (CPU) 0.18 s (wall)
DIIS Errors:  Max 1.83E-05 RMS 1.59E-06

Current DIIS subspace size = 8
REM_GRID_RESTART_DIIS = 0

    8    -152.7645286477      1.59E-06  00000
Finding J and K together
 Job number = 22, Threshold = 1.00E-11
Integral type ranges set in mkLRange.C for JobNum: 22  <1-6|1-6>
 MakeJK  time:  CPU       0.13 s  wall       0.13 s
Fock build time:  0.13 s (CPU) 0.13 s (wall)
DIIS Errors:  Max 2.66E-06 RMS 4.35E-07

Current DIIS subspace size = 9
REM_GRID_RESTART_DIIS = 0

    9    -152.7645286511      4.35E-07  00000
Finding J and K together
 Job number = 22, Threshold = 1.00E-11
Integral type ranges set in mkLRange.C for JobNum: 22  <1-6|1-6>
 MakeJK  time:  CPU       0.19 s  wall       0.20 s
Fock build time:  0.19 s (CPU) 0.20 s (wall)
DIIS Errors:  Max 8.97E-07 RMS 1.29E-07

Current DIIS subspace size = 10
REM_GRID_RESTART_DIIS = 0

   10    -152.7645286512      1.29E-07  00000
Finding J and K together
 Job number = 22, Threshold = 1.00E-11
Integral type ranges set in mkLRange.C for JobNum: 22  <1-6|1-6>
 MakeJK  time:  CPU       0.19 s  wall       0.19 s
Fock build time:  0.19 s (CPU) 0.19 s (wall)
DIIS Errors:  Max 2.14E-07 RMS 3.42E-08

Current DIIS subspace size = 11
REM_GRID_RESTART_DIIS = 0

   11    -152.7645286512      3.42E-08  00000
Finding J and K together
 Job number = 22, Threshold = 1.00E-11
Integral type ranges set in mkLRange.C for JobNum: 22  <1-6|1-6>
 MakeJK  time:  CPU       0.18 s  wall       0.18 s
Fock build time:  0.18 s (CPU) 0.18 s (wall)
DIIS Errors:  Max 7.78E-08 RMS 1.10E-08

Current DIIS subspace size = 12
REM_GRID_RESTART_DIIS = 0

   12    -152.7645286512      1.10E-08  00000
Finding J and K together
 Job number = 22, Threshold = 1.00E-11
Integral type ranges set in mkLRange.C for JobNum: 22  <1-6|1-6>
 MakeJK  time:  CPU       0.19 s  wall       0.19 s
Fock build time:  0.19 s (CPU) 0.19 s (wall)
DIIS Errors:  Max 1.87E-08 RMS 2.40E-09

Current DIIS subspace size = 13
REM_GRID_RESTART_DIIS = 0

   13    -152.7645286512      2.40E-09  00000 Convergence criterion met
 ---------------------------------------
 SCF time:  CPU 2.18 s  wall 2.24 s
 SCF   energy in the final basis set = -152.76452865
 Total energy in the final basis set = -152.76452865
drvman_main.C: 73: calling DrvMan  Calculating analytic gradient of the SCF energy
drvman.C : 218: Calculating analytic gradient of the SCF energy
drvman.C: 244: calling SCF_Grad for normal SCF gradient
 Job number = 111, Threshold = 1.00E-11
Integral type ranges set in mkLRange.C for JobNum: 11  <1-6|7-7>
Finding J and K together
 ML is being used
 Job number = 122, Threshold = 1.00E-11
Integral type ranges set in mkLRange.C for JobNum: 22  <1-6|1-6>
 MakeJK  time:  CPU       0.42 s  wall       0.42 s
 Gradient of SCF Energy
            1           2           3           4           5           6
    1  -0.0973564   0.0958688   0.0565107   0.0262633  -0.1442050  -0.1017638
    2   0.0939603  -0.0061294  -0.0043219  -0.0172392   0.0339407  -0.0299345
    3   0.1309721   0.0148748  -0.0088840  -0.0239854   0.0400920  -0.1626204
            7           8           9          10
    1   0.0238909   0.0634530   0.0254811   0.0518573
    2  -0.0020699   0.0492510  -0.0397260  -0.0777312
    3   0.0016862   0.0494493  -0.0778472   0.0362626
 Max gradient component =       1.626E-01
 RMS gradient           =       6.803E-02
drvman.C: 248: out of SCF_Grad for normal SCF gradient
 Gradient time:  CPU 0.44 s  wall 0.44 s
 ------------------------------------------------------------------------------
                     drvman        : Timing summary (seconds)
 ------------------------------------------------------------------------------
     job step          cpu (% of tot)      sys (% of tot)     wall (% of tot)
 ------------------------------------------------------------------------------
 ------------------------------------------------------------------------------
   Grand Totals     0.4360E+00          0.0000E+00          0.4397E+00
 ------------------------------------------------------------------------------
drvman_main.C: 77: out of DrvMan  Time for this dynamics step: 2.7 s (CPU) 2.7 s (wall)

=============== TIME STEPS COMPLETED ==================

Step-to-Step energy fluctuations, |E(n) - E(n-1)|
Mean: -1.951e-06   Max: 2.534e-03   RMS: 2.896e-04
Overall energy fluctuations, |E(n) - E(0)|
Mean: -5.998e-04   Max: 3.109e-03   RMS: 4.407e-04   RMS(dE)/RMS(dV): 5.709e-03
Kinetic energy fluctuations, |T(n) - V(0)|
Mean: 2.183e-01   Max: 3.917e-01   RMS: 7.698e-02
Potential energy fluctuations, |V(n) - V(0)|
Mean: -2.189e-01   Max: 3.932e-01   RMS: 7.719e-02


 JobOver = TRUE
Archival summary:
1\1\qciep03\JobtypUnspecified\HF\STO-3G\46\jcartus\MonJun1812:40:452018MonJun1812:40:452018\0\\#,JobtypUnspecified,HF,STO-3G,\\0,1\C\H,1,1.23651\C,1,1.40707,2,126.479\H,3,1.00067,1,115.803,2,42.2245,0\H,3,1.08942,1,116.94,2,-136.169,0\C,1,1.78673,2,101.966,3,-137.889,0\C,6,1.48836,1,120.28,2,49.1481,0\H,7,1.11723,6,125.01,1,-41.1766,0\H,7,1.14525,6,126.957,1,172.313,0\H,7,1.25915,6,106.337,1,57.767,0\\HF=-152.764529\\@

 Total job time:  1027.03s(wall), 988.57s(cpu) 
 Mon Jun 18 12:40:45 2018

        *************************************************************
        *                                                           *
        *  Thank you very much for using Q-Chem.  Have a nice day.  *
        *                                                           *
        *************************************************************


*** MISSION COMPLETED -- STARFLEET OUT ***

0 sent ACK to 0 
now end server 0 ... 
