Process 0 of 1 is on qciep03 - thread support 0
initial socket setup ...start
initial socket setup ...done 
now start server 0 ... 
qciep03.tugraz.at 127.0.1
Q-Chem Developer Version! Running on 127.0.1.*
                  Welcome to Q-Chem
     A Quantum Leap Into The Future Of Chemistry


 Q-Chem 5.0, Q-Chem, Inc., Pleasanton, CA (2017)

 Yihan Shao,  Zhengting Gan,  E. Epifanovsky,  A. T. B. Gilbert,  M. Wormit,  
 J. Kussmann,  A. W. Lange,  A. Behn,  Jia Deng,  Xintian Feng,  D. Ghosh,  
 M. Goldey,  P. R. Horn,  L. D. Jacobson,  I. Kaliman,  T. Kus,  A. Landau,  
 Jie Liu,  E. I. Proynov,  R. M. Richard,  R. P. Steele,  E. J. Sundstrom,  
 H. L. Woodcock III,  P. M. Zimmerman,  D. Zuev,  B. Albrecht,  E. Alguire,  
 S. A. Baeppler,  D. Barton,  Z. Benda,  Y. A. Bernard,  E. J. Berquist,  
 K. B. Bravaya,  H. Burton,  D. Casanova,  Chun-Min Chang,  Yunqing Chen,  
 A. Chien,  K. D. Closser,  M. P. Coons,  S. Dasgupta,  A. L. Dempwolff,  
 M. Diedenhofen,  Hainam Do,  R. G. Edgar,  Po-Tung Fang,  S. Fatehi,  
 Qingguo Feng,  J. Fosso-Tande,  Qinghui Ge,  A. Ghysels,  G. Gidofalvi,  
 J. Gomes,  J. Gonthier,  A. Gunina,  M. W. D. Hanson-Heine,  
 P. H. P. Harbach,  A. W. Hauser,  J. E. Herr,  E. G. Hohenstein,  
 Z. C. Holden,  Kerwin Hui,  T.-C. Jagau,  Hyunjun Ji,  B. Kaduk,  
 K. Khistyaev,  Jaehoon Kim,  P. Klunzinger,  K. Koh,  D. Kosenkov,  
 L. Koulias,  T. Kowalczyk,  C. M. Krauter,  A. Kunitsa,  Ka Un Lao,  
 A. Laurent,  K. V. Lawler,  Joonho Lee,  D. Lefrancois,  S. Lehtola,  
 D. S. Levine,  Yi-Pei Li,  You-Sheng Lin,  Fenglai Liu,  E. Livshits,  
 A. Luenser,  P. Manohar,  E. Mansoor,  S. F. Manzer,  Shan-Ping Mao,  
 Yuezhi Mao,  N. Mardirossian,  A. V. Marenich,  T. Markovich,  
 L. A. Martinez-Martinez,  S. A. Maurer,  N. J. Mayhall,  S. C. McKenzie,  
 J.-M. Mewes,  A. F. Morrison,  J. W. Mullinax,  K. Nanda,  
 T. S. Nguyen-Beck,  R. Olivares-Amaya,  J. A. Parkhill,  T. M. Perrine,  
 F. Plasser,  S. Prager,  A. Prociuk,  E. Ramos,  D. R. Rehn,  F. Rob,  
 M. Schneider,  N. Sergueev,  S. M. Sharada,  S. Sharma,  D. W. Small,  
 T. Stauch,  T. Stein,  Yu-Chuan Su,  A. J. W. Thom,  A. Tkatchenko,  
 T. Tsuchimochi,  L. Vogt,  O. Vydrov,  M. A. Watson,  J. Wenzel,  
 M. de Wergifosse,  T. A. Wesolowski,  A. White,  J. Witte,  A. Yamada,  
 Jun Yang,  K. Yao,  S. Yeganeh,  S. R. Yost,  Zhi-Qiang You,  A. Zech,  
 Igor Ying Zhang,  Xing Zhang,  Yan Zhao,  Ying Zhu,  B. R. Brooks,  
 G. K. L. Chan,  C. J. Cramer,  M. S. Gordon,  W. J. Hehre,  A. Klamt,  
 M. W. Schmidt,  C. D. Sherrill,  D. G. Truhlar,  A. Aspuru-Guzik,  R. Baer,  
 A. T. Bell,  N. A. Besley,  Jeng-Da Chai,  R. A. DiStasio Jr.,  A. Dreuw,  
 B. D. Dunietz,  T. R. Furlani,  Chao-Ping Hsu,  Yousung Jung,  Jing Kong,  
 D. S. Lambrecht,  WanZhen Liang,  C. Ochsenfeld,  V. A. Rassolov,  
 L. V. Slipchenko,  J. E. Subotnik,  T. Van Voorhis,  J. M. Herbert,  
 A. I. Krylov,  P. M. W. Gill,  M. Head-Gordon

 Contributors to earlier versions of Q-Chem not listed above: 
 R. D. Adamson,  B. Austin,  J. Baker,  G. J. O. Beran,  K. Brandhorst,  
 S. T. Brown,  E. F. C. Byrd,  A. K. Chakraborty,  C.-L. Cheng,  
 Siu Hung Chien,  D. M. Chipman,  D. L. Crittenden,  H. Dachsel,  
 R. J. Doerksen,  A. D. Dutoi,  L. Fusti-Molnar,  W. A. Goddard III,  
 A. Golubeva-Zadorozhnaya,  S. R. Gwaltney,  G. Hawkins,  A. Heyden,  
 S. Hirata,  G. Kedziora,  F. J. Keil,  C. Kelley,  Jihan Kim,  R. A. King,  
 R. Z. Khaliullin,  P. P. Korambath,  W. Kurlancheek,  A. M. Lee,  M. S. Lee,  
 S. V. Levchenko,  Ching Yeh Lin,  D. Liotard,  R. C. Lochan,  I. Lotan,  
 P. E. Maslen,  N. Nair,  D. P. O'Neill,  D. Neuhauser,  E. Neuscamman,  
 C. M. Oana,  R. Olson,  B. Peters,  R. Peverati,  P. A. Pieniazek,  
 Y. M. Rhee,  J. Ritchie,  M. A. Rohrdanz,  E. Rosta,  N. J. Russ,  
 H. F. Schaefer III,  N. E. Schultz,  N. Shenvi,  A. C. Simmonett,  A. Sodt,  
 D. Stuck,  K. S. Thanthiriwatte,  V. Vanovschi,  Tao Wang,  A. Warshel,  
 C. F. Williams,  Q. Wu,  X. Xu,  W. Zhang

 Please cite Q-Chem as follows:
 Y. Shao et al., Mol. Phys. 113, 184-215 (2015)
 DOI: 10.1080/00268976.2014.952696

 Q-Chem 5.0.2 for Intel X86 EM64T Linux

 Parts of Q-Chem use Armadillo 5.200.1 (Boston Tea Smuggler).
 http://arma.sourceforge.net/

 Q-Chem begins on Mon Jun 18 12:39:37 2018  


Host: 0

     Scratch files written to /home/jcartus/scratch/Butadien_20.mol.dir//
 Using version located at /usr/local/qchem/bin/qchem

 Parallel job on  1  processors
Symmetry disabled for AIMD jobs.

Total Memory Limit in MB = 2000
Mega-Array Size in MB = 192

Checking the input file for inconsistencies... 	...done.
Finally everything over in PARseQInput

--------------------------------------------------------------
User input:
--------------------------------------------------------------
$rem
AIMD_STEPS                    400
FOCK_EXTRAP_POINTS            12
MAX_SCF_CYCLES                100
BASIS                         sto-3g
AIMD_INIT_VELOC               thermal
FOCK_EXTRAP_ORDER             6
AIMD_TEMP                     400
AIMD_METHOD                   bomd
TIME_STEP                     20
METHOD                        hf
JOBTYPE                       aimd
$end

$molecule
0 1
C    3.82646    2.01433    0.98877
C    2.75862    1.21695    0.87260
H    3.74895    3.09580    0.94105
H    4.81521    1.59170    1.13720
C    1.42234    1.72065    0.67458
C    0.35277    0.92419    0.56590
H    0.42863    -0.15701    0.62150
H    -0.63569    1.34750    0.41748
H    2.89428    0.13886    0.92877
H    1.28777    2.79855    0.61205
$end


--------------------------------------------------------------
 ----------------------------------------------------------------
             Standard Nuclear Orientation (Angstroms)
    I     Atom           X                Y                Z
 ----------------------------------------------------------------
    1      C       3.8264600000     2.0143300000     0.9887700000
    2      C       2.7586200000     1.2169500000     0.8726000000
    3      H       3.7489500000     3.0958000000     0.9410500000
    4      H       4.8152100000     1.5917000000     1.1372000000
    5      C       1.4223400000     1.7206500000     0.6745800000
    6      C       0.3527700000     0.9241900000     0.5659000000
    7      H       0.4286300000    -0.1570100000     0.6215000000
    8      H      -0.6356900000     1.3475000000     0.4174800000
    9      H       2.8942800000     0.1388600000     0.9287700000
   10      H       1.2877700000     2.7985500000     0.6120500000
 ----------------------------------------------------------------
 Nuclear Repulsion Energy =   104.1573316596 hartrees
 There are       15 alpha and       15 beta electrons
 Requested basis set is STO-3G
 There are 14 shells and 26 basis functions

 Total QAlloc Memory Limit   2000 MB
 Mega-Array Size       188 MB
 MEM_STATIC part       192 MB

finished with qalloc call

                       Distance Matrix (Angstroms)
             C (  1)   C (  2)   H (  3)   H (  4)   C (  5)   C (  6)
   C (  2)  1.337757
   H (  3)  1.085294  2.124974
   H (  4)  1.085483  2.107134  1.854104
   C (  5)  2.442285  1.441725  2.715724  3.426691
   C (  6)  3.665208  2.442926  4.048539  4.548112  1.337961
   H (  7)  4.049056  2.716555  4.659121  4.750370  2.125061  1.085283
   H (  8)  4.547727  3.427173  4.749289  5.503630  2.107327  1.085483
   H (  9)  2.095220  1.088043  3.078004  2.417470  2.175610  2.684714
   H ( 10)  2.683629  2.175487  2.500801  3.764984  1.088066  2.095133
             H (  7)   H (  8)   H (  9)
   H (  8)  1.854171
   H (  9)  2.502276  3.766021
   H ( 10)  3.077913  2.417251  3.123321

 Job number = 2, Threshold = 1.00E-11
Integral type ranges set in mkLRange.C for JobNum: 2  <1-6|1-6>
Symmetry turned off temporarily
 Using the largest function pair in Schwarz integrals
Total number of integrals generated =            3252
Symmetry turned back on
 A cutoff of  1.0D-11 yielded    102 shell pairs
 There are       372 function pairs
 Job number = 11, Threshold = 1.00E-11
Integral type ranges set in mkLRange.C for JobNum: 11  <1-6|7-7>
Total number of integrals generated =            3720
 Smallest overlap matrix eigenvalue = 1.84E-01
 Multipole matrices computed through 2nd order

 Scale SEOQF with 1.000000e-01/1.000000e-01/1.000000e+00

 Standard Electronic Orientation quadrupole field applied
 Nucleus-field energy     =    -0.0000000079 hartrees
 ENuRep (before)= 104.1573316596
 ENucField = -0.0000000079
 ENuRep (after) = 104.1573316517
 Guess from superposition of atomic densities
 Warning:  Energy on first SCF cycle will be non-variational
 SAD guess density has 30.000000 electrons

 ==================================================
    GEN_SCFMAN: A general SCF calculation manager  
                                                   
    Authors:                                       
        -- Eric Jon Sundstrom 2008-2014            
        -- Paul Horn 2010-2015                     
        -- Yuezhi Mao 2012-                        
        -- Dmitri Zuev 2014                        
        -- Alec White 2015-                        
        -- David Stuck 2015                        
        -- Shaama M.S. 2015                        
        -- Shane Yost 2015-                         
        -- Joonho Lee 2016-                        
        -- David Small 2016-                       
        -- Daniel Levine 2016-                     
        -- Susi Lehtola 2017-                      
        -- Hugh Burton 2017-                       
 ==================================================
 Hartree-Fock
Finding J and K together
 Job number = 22, Threshold = 1.00E-11
Integral type ranges set in mkLRange.C for JobNum: 22  <1-6|1-6>
 MakeJK  time:  CPU       0.14 s  wall       0.15 s
 A restricted SCF calculation will be
 performed using DIIS
 SCF converges when DIIS error is below 1.0e-08
 ---------------------------------------
  Cycle       Energy         DIIS error
 ---------------------------------------
Finding J and K together
 Job number = 22, Threshold = 1.00E-11
Integral type ranges set in mkLRange.C for JobNum: 22  <1-6|1-6>
 MakeJK  time:  CPU       0.18 s  wall       0.18 s
    1    -152.6466687240      2.15e-01  
Finding J and K together
 Job number = 22, Threshold = 1.00E-11
Integral type ranges set in mkLRange.C for JobNum: 22  <1-6|1-6>
 MakeJK  time:  CPU       0.15 s  wall       0.15 s
    2    -152.9904301201      1.29e-02  
Finding J and K together
 Job number = 22, Threshold = 1.00E-11
Integral type ranges set in mkLRange.C for JobNum: 22  <1-6|1-6>
 MakeJK  time:  CPU       0.16 s  wall       0.16 s
    3    -153.0145608705      3.50e-03  
Finding J and K together
 Job number = 22, Threshold = 1.00E-11
Integral type ranges set in mkLRange.C for JobNum: 22  <1-6|1-6>
 MakeJK  time:  CPU       0.16 s  wall       0.16 s
    4    -153.0163505885      1.28e-03  
Finding J and K together
 Job number = 22, Threshold = 1.00E-11
Integral type ranges set in mkLRange.C for JobNum: 22  <1-6|1-6>
 MakeJK  time:  CPU       0.18 s  wall       0.19 s
    5    -153.0165216534      9.61e-05  
Finding J and K together
 Job number = 22, Threshold = 1.00E-11
Integral type ranges set in mkLRange.C for JobNum: 22  <1-6|1-6>
 MakeJK  time:  CPU       0.17 s  wall       0.17 s
    6    -153.0165248484      1.29e-05  
Finding J and K together
 Job number = 22, Threshold = 1.00E-11
Integral type ranges set in mkLRange.C for JobNum: 22  <1-6|1-6>
 MakeJK  time:  CPU       0.16 s  wall       0.16 s
    7    -153.0165249084      1.48e-06  
Finding J and K together
 Job number = 22, Threshold = 1.00E-11
Integral type ranges set in mkLRange.C for JobNum: 22  <1-6|1-6>
 MakeJK  time:  CPU       0.15 s  wall       0.15 s
    8    -153.0165249089      1.06e-07  
Finding J and K together
 Job number = 22, Threshold = 1.00E-11
Integral type ranges set in mkLRange.C for JobNum: 22  <1-6|1-6>
 MakeJK  time:  CPU       0.17 s  wall       0.17 s
    9    -153.0165249089      3.34e-08  
Finding J and K together
 Job number = 22, Threshold = 1.00E-11
Integral type ranges set in mkLRange.C for JobNum: 22  <1-6|1-6>
 MakeJK  time:  CPU       0.20 s  wall       0.19 s
   10    -153.0165249089      1.42e-08  
   11    -153.0165249089      3.68e-09  Convergence criterion met
 ---------------------------------------
 SCF time:   CPU 1.82s  wall 2.00s 
 Total energy in the final basis set =     -153.0165249089
Wall  1 = 2
Clock 1 = 1.8174819946
 ==================================================
                  Done GEN_SCFMAN                  
 ==================================================

Symmetry turned off temporarily

 --------------------------------------------------------------

                    Orbital Energies (a.u.)
 --------------------------------------------------------------

 Alpha MOs
 -- Occupied --
-11.031 -11.030 -11.016 -11.016  -1.036  -0.942  -0.772  -0.708
 -0.591  -0.591  -0.498  -0.491  -0.443  -0.399  -0.261
 -- Virtual --
  0.243   0.421   0.593   0.674   0.684   0.697   0.699   0.880
  0.910   1.025   1.078
 --------------------------------------------------------------

          Ground-State Mulliken Net Atomic Charges

     Atom                 Charge (a.u.)
  ----------------------------------------
      1 C                    -0.124577
      2 C                    -0.059611
      3 H                     0.060788
      4 H                     0.060919
      5 C                    -0.059562
      6 C                    -0.124609
      7 H                     0.060760
      8 H                     0.060923
      9 H                     0.062510
     10 H                     0.062460
  ----------------------------------------
  Sum of atomic charges =    -0.000000

 -----------------------------------------------------------------
                    Cartesian Multipole Moments
 -----------------------------------------------------------------
    Charge (ESU x 10^10)
                -0.0000
    Dipole Moment (Debye)
         X       0.0004      Y       0.0002      Z       0.0007
       Tot       0.0008
    Quadrupole Moments (Debye-Ang)
        XX     -22.7280     XY      -0.0887     YY     -22.0820
        XZ       0.3294     YZ      -0.1285     ZZ     -25.1042
    Octopole Moments (Debye-Ang^2)
       XXX    -142.5144    XXY     -33.7656    XYY     -46.4131
       YYY     -97.3210    XXZ     -16.2468    XYZ       0.1581
       YYZ     -17.5016    XZZ     -51.9576    YZZ     -37.0773
       ZZZ     -58.4169
    Hexadecapole Moments (Debye-Ang^3)
      XXXX    -896.9831   XXXY    -245.1166   XXYY    -211.7378
      XYYY    -233.5276   YYYY    -358.0269   XXXZ    -121.2251
      XXYZ     -26.1243   XYYZ     -42.1220   YYYZ     -79.4967
      XXZZ    -180.9901   XYZZ     -87.8906   YYZZ     -86.2664
      XZZZ    -141.3381   YZZZ     -89.2622   ZZZZ    -116.0501
 -----------------------------------------------------------------
drvman_main.C: 73: calling DrvMan  Calculating analytic gradient of the SCF energy
drvman.C : 218: Calculating analytic gradient of the SCF energy
drvman.C: 244: calling SCF_Grad for normal SCF gradient
 Job number = 111, Threshold = 1.00E-11
Integral type ranges set in mkLRange.C for JobNum: 11  <1-6|7-7>
Finding J and K together
 ML is being used
 Job number = 122, Threshold = 1.00E-11
Integral type ranges set in mkLRange.C for JobNum: 22  <1-6|1-6>
Total number of integrals generated =           70507
 MakeJK  time:  CPU       0.49 s  wall       0.49 s
 Gradient of SCF Energy
            1           2           3           4           5           6
    1   0.0213324  -0.0648985  -0.0007803   0.0020683   0.0652752  -0.0216946
    2   0.0242850  -0.0143830   0.0037266  -0.0046651   0.0144449  -0.0243737
    3   0.0019790  -0.0082006  -0.0001789   0.0004444   0.0081051  -0.0019110
            7           8           9          10
    1   0.0007803  -0.0020715   0.0030195  -0.0030308
    2  -0.0037056   0.0046625  -0.0037370   0.0037454
    3   0.0003138  -0.0004664   0.0005052  -0.0005906
 Max gradient component =       6.528E-02
 RMS gradient           =       1.938E-02
drvman.C: 248: out of SCF_Grad for normal SCF gradient
 Gradient time:  CPU 0.51 s  wall 0.51 s
 ------------------------------------------------------------------------------
                     drvman        : Timing summary (seconds)
 ------------------------------------------------------------------------------
     job step          cpu (% of tot)      sys (% of tot)     wall (% of tot)
 ------------------------------------------------------------------------------
 ------------------------------------------------------------------------------
   Grand Totals     0.5120E+00          0.2000E-05          0.5129E+00
 ------------------------------------------------------------------------------
drvman_main.C: 77: out of DrvMan =======================================================
            AB INITIO MOLECULAR DYNAMICS
=======================================================
Created directory /home/jcartus/scratch/Butadien_20.mol.dir/AIMD
AIMD will take 400 BOMD steps Velocity Verlet integration
Time step = 20.00000 a.u. ( = 0.48378 fs)
Total simulation time requested = 193.511 fs
Integral threshold = 10**(-11)
SCF convergence threshold = 10**(-8)
Generating viewable xyz trajectory,
 file (in Angstroms) at AIMD/View.xyz
Choosing nuclear velocities from Maxwell-Boltzmann
Velocities sampled from Maxwell-Boltzmann at T = 400.0 K
sqrt(kT/m) and (vx,vy,vz) for each atom:
  1   2.4064e-04   5.47e-06   1.25e-04   3.48e-04 
  2   2.4064e-04  -4.81e-04  -1.72e-04   7.94e-05 
  3   8.3036e-04   6.64e-04   2.48e-04  -6.60e-04 
  4   8.3036e-04   1.03e-03   2.21e-04  -2.16e-03 
  5   2.4064e-04   1.46e-04  -6.81e-05   2.34e-04 
  6   2.4064e-04  -3.38e-05  -1.29e-04   4.77e-05 
  7   8.3036e-04  -8.10e-04  -1.05e-03  -1.19e-03 
  8   8.3036e-04  -1.21e-03   9.30e-05  -3.42e-04 
  9   8.3036e-04   1.04e-03  -2.21e-04  -5.10e-04 
 10   8.3036e-04  -4.65e-04   1.63e-04   4.96e-04 
T(nuclear) = 0.01777651 a.u.
v(c.o.m.) = ( -7.5842e-05,  -6.4478e-05,   7.6089e-05)
T(c.o.m.) = 7.73340e-04 a.u.
kT/2 = 0.000633 a.u.
Tx   = 0.007294 a.u.
Ty   = 0.001930 a.u.
Tz   = 0.008552 a.u.
Mean velocities (a.u.):  -1.0650e-05  -7.9411e-05  -3.6502e-04
Removing c.o.m. velocity
T(nuclear) = 0.02255644 a.u.
v(c.o.m.) = (  6.0570e-21,   1.1269e-21,   1.9720e-21)
T(c.o.m.) = 2.06137e-36 a.u.
kT   = 0.001267 a.u. = 0.79 kcal/mol
Tx   = 0.008177 a.u. = 5.13 kcal/mol
Ty   = 0.002122 a.u. = 1.33 kcal/mol
Tz   = 0.012257 a.u. = 7.69 kcal/mol
Initial velocities in m/s
  1      8.6701e+01      3.3806e+02      6.8607e+02 
  2     -9.7695e+02     -3.1304e+02      9.8692e+01 
  3      2.3423e+03      1.2996e+03     -2.3374e+03 
  4      3.1435e+03      1.2402e+03     -5.6094e+03 
  5      3.9399e+02     -8.5456e+01      4.3668e+02 
  6      7.3370e-01     -2.1972e+02      2.9283e+01 
  7     -8.8224e+02     -1.5504e+03     -3.4885e+03 
  8     -1.7502e+03      9.6001e+02     -1.6414e+03 
  9      3.1744e+03      2.7328e+02     -2.0084e+03 
 10     -1.2765e+02      1.1130e+03      1.9291e+02 
----------------------------------------------------------------------------
       Nuclear coordinates (Angst) and velocities (a.u.)
----------------------------------------------------------------------------
             x        y        z            v_x         v_y        v_z
----------------------------------------------------------------------------
1      C    3.8265   2.0143   0.9888     3.9631e-05   1.5453e-04   3.1361e-04
2      C    2.7586   1.2169   0.8726    -4.4657e-04  -1.4309e-04   4.5113e-05
3      H    3.7489   3.0958   0.9411     1.0707e-03   5.9406e-04  -1.0684e-03
4      H    4.8152   1.5917   1.1372     1.4369e-03   5.6689e-04  -2.5641e-03
5      C    1.4223   1.7207   0.6746     1.8009e-04  -3.9062e-05   1.9961e-04
6      C    0.3528   0.9242   0.5659     3.3538e-07  -1.0043e-04   1.3385e-05
7      H    0.4286  -0.1570   0.6215    -4.0327e-04  -7.0871e-04  -1.5946e-03
8      H   -0.6357   1.3475   0.4175    -8.0002e-04   4.3882e-04  -7.5027e-04
9      H    2.8943   0.1389   0.9288     1.4510e-03   1.2492e-04  -9.1804e-04
10     H    1.2878   2.7986   0.6120    -5.8349e-05   5.0878e-04   8.8179e-05
----------------------------------------------------------------------------
Write nuclear velocities every 1 time steps

TIME STEP #1 (t = 0.000 a.u. = 0.00000 fs)
--------------------------------------
 Instantaneous Temperature = 474.9 K
 ----------------------------------------------------------------
             Standard Nuclear Orientation (Angstroms)
    I     Atom           X                Y                Z
 ----------------------------------------------------------------
    1      C       3.8267762255     2.0158479801     0.9920794837
    2      C       2.7542077542     1.2155051676     0.8731171269
    3      H       3.7603262370     3.1018726177     0.9297524525
    4      H       4.8302981970     1.5979684949     1.1100375973
    5      C       1.4239302154     1.7201666965     0.6766533265
    6      C       0.3528785137     0.9232449693     0.5660509109
    7      H       0.4243169826    -0.1642971886     0.6046054913
    8      H      -0.6440376976     1.3518757227     0.4095663459
    9      H       2.9094632122     0.1403973625     0.9190247915
   10      H       1.2873270642     2.8037188845     0.6130172662
 ----------------------------------------------------------------
 Nuclear Repulsion Energy =   103.9792678617 hartrees
 There are       15 alpha and       15 beta electrons

                       Distance Matrix (Angstroms)
             C (  1)   C (  2)   H (  3)   H (  4)   C (  5)   C (  6)
   C (  2)  1.343542
   H (  3)  1.089839  2.138659
   H (  4)  1.093432  2.124279  1.854473
   C (  5)  2.441432  1.436287  2.726154  3.436000
   C (  6)  3.666503  2.438460  4.060714  4.560533  1.339578
   H (  7)  4.059544  2.721092  4.680015  4.772181  2.134390  1.090568
   H (  8)  4.557231  3.432426  4.767757  5.524452  2.117419  1.096382
   H (  9)  2.089046  1.087230  3.081301  2.418803  2.182023  2.696955
   H ( 10)  2.685746  2.177571  2.510964  3.775382  1.093981  2.100377
             H (  7)   H (  8)   H (  9)
   H (  8)  1.864994
   H (  9)  2.523420  3.788746
   H ( 10)  3.090951  2.424750  3.133408

 Applying Cartesian multipole field
    Component          Value
    ---------          -----
     (2,0,0)        1.00000E-11
     (0,2,0)        2.00000E-11
     (0,0,2)       -3.00000E-10
 Nucleus-field energy     =    -0.0000000078 hartrees
 ENuRep (before)= 103.9792678617
 ENucField = -0.0000000078
 ENuRep (after) = 103.9792678539
 Job number = 2, Threshold = 1.00E-11
Integral type ranges set in mkLRange.C for JobNum: 2  <1-6|1-6>
Symmetry turned off temporarily
Symmetry turned back on
 Job number = 11, Threshold = 1.00E-11
Integral type ranges set in mkLRange.C for JobNum: 11  <1-6|7-7>
 Smallest overlap matrix eigenvalue = 1.85E-01
 Multipole matrices computed through 2nd order
 Guess from superposition of atomic densities
 Warning:  Energy on first SCF cycle will be non-variational
 SAD guess density has 30.000000 electrons
 SCF convergence criterion is 10**(-8)
 A restricted Hartree-Fock SCF calculation will be
 performed using Pulay DIIS extrapolation
 SCF converges when DIIS error is below 1.0E-08
Finding J and K together
 Job number = 22, Threshold = 1.00E-11
Integral type ranges set in mkLRange.C for JobNum: 22  <1-6|1-6>
 MakeJK  time:  CPU       0.14 s  wall       0.20 s
Fock build time:  0.14 s (CPU) 0.21 s (wall)
DIIS Errors:  Max 1.09E+00 RMS 2.14E-01

Current DIIS subspace size = 1
REM_GRID_RESTART_DIIS = 0

 ---------------------------------------
  Cycle       Energy         DIIS Error
 ---------------------------------------
    1    -152.6128855792      2.14E-01  00000
Finding J and K together
 Job number = 22, Threshold = 1.00E-11
Integral type ranges set in mkLRange.C for JobNum: 22  <1-6|1-6>
 MakeJK  time:  CPU       0.20 s  wall       0.24 s
Fock build time:  0.20 s (CPU) 0.24 s (wall)
DIIS Errors:  Max 5.71E-02 RMS 1.29E-02

Current DIIS subspace size = 2
REM_GRID_RESTART_DIIS = 0

    2    -152.9885714654      1.29E-02  00000
Finding J and K together
 Job number = 22, Threshold = 1.00E-11
Integral type ranges set in mkLRange.C for JobNum: 22  <1-6|1-6>
 MakeJK  time:  CPU       0.20 s  wall       0.22 s
Fock build time:  0.20 s (CPU) 0.22 s (wall)
DIIS Errors:  Max 1.79E-02 RMS 3.53E-03

Current DIIS subspace size = 3
REM_GRID_RESTART_DIIS = 0

    3    -153.0128824987      3.53E-03  00000
Finding J and K together
 Job number = 22, Threshold = 1.00E-11
Integral type ranges set in mkLRange.C for JobNum: 22  <1-6|1-6>
 MakeJK  time:  CPU       0.20 s  wall       0.21 s
Fock build time:  0.20 s (CPU) 0.21 s (wall)
DIIS Errors:  Max 9.27E-03 RMS 1.33E-03

Current DIIS subspace size = 4
REM_GRID_RESTART_DIIS = 0

    4    -153.0147016118      1.33E-03  00000
Finding J and K together
 Job number = 22, Threshold = 1.00E-11
Integral type ranges set in mkLRange.C for JobNum: 22  <1-6|1-6>
 MakeJK  time:  CPU       0.18 s  wall       0.19 s
Fock build time:  0.18 s (CPU) 0.20 s (wall)
DIIS Errors:  Max 1.14E-03 RMS 9.84E-05

Current DIIS subspace size = 5
REM_GRID_RESTART_DIIS = 0

    5    -153.0148862709      9.84E-05  00000
Finding J and K together
 Job number = 22, Threshold = 1.00E-11
Integral type ranges set in mkLRange.C for JobNum: 22  <1-6|1-6>
 MakeJK  time:  CPU       0.17 s  wall       0.18 s
Fock build time:  0.17 s (CPU) 0.18 s (wall)
DIIS Errors:  Max 1.68E-04 RMS 1.42E-05

Current DIIS subspace size = 6
REM_GRID_RESTART_DIIS = 0

    6    -153.0148896723      1.42E-05  00000
Finding J and K together
 Job number = 22, Threshold = 1.00E-11
Integral type ranges set in mkLRange.C for JobNum: 22  <1-6|1-6>
 MakeJK  time:  CPU       0.20 s  wall       0.21 s
Fock build time:  0.20 s (CPU) 0.21 s (wall)
DIIS Errors:  Max 1.23E-05 RMS 1.83E-06

Current DIIS subspace size = 7
REM_GRID_RESTART_DIIS = 0

    7    -153.0148897459      1.83E-06  00000
Finding J and K together
 Job number = 22, Threshold = 1.00E-11
Integral type ranges set in mkLRange.C for JobNum: 22  <1-6|1-6>
 MakeJK  time:  CPU       0.16 s  wall       0.16 s
Fock build time:  0.16 s (CPU) 0.16 s (wall)
DIIS Errors:  Max 2.31E-06 RMS 4.47E-07

Current DIIS subspace size = 8
REM_GRID_RESTART_DIIS = 0

    8    -153.0148897466      4.47E-07  00000
Finding J and K together
 Job number = 22, Threshold = 1.00E-11
Integral type ranges set in mkLRange.C for JobNum: 22  <1-6|1-6>
 MakeJK  time:  CPU       0.15 s  wall       0.15 s
Fock build time:  0.15 s (CPU) 0.15 s (wall)
DIIS Errors:  Max 8.00E-07 RMS 1.50E-07

Current DIIS subspace size = 9
REM_GRID_RESTART_DIIS = 0

    9    -153.0148897467      1.50E-07  00000
Finding J and K together
 Job number = 22, Threshold = 1.00E-11
Integral type ranges set in mkLRange.C for JobNum: 22  <1-6|1-6>
 MakeJK  time:  CPU       0.18 s  wall       0.18 s
Fock build time:  0.18 s (CPU) 0.18 s (wall)
DIIS Errors:  Max 2.94E-07 RMS 6.19E-08

Current DIIS subspace size = 10
REM_GRID_RESTART_DIIS = 0

   10    -153.0148897467      6.19E-08  00000
Finding J and K together
 Job number = 22, Threshold = 1.00E-11
Integral type ranges set in mkLRange.C for JobNum: 22  <1-6|1-6>
 MakeJK  time:  CPU       0.18 s  wall       0.19 s
Fock build time:  0.18 s (CPU) 0.19 s (wall)
DIIS Errors:  Max 5.72E-08 RMS 1.09E-08

Current DIIS subspace size = 11
REM_GRID_RESTART_DIIS = 0

   11    -153.0148897467      1.09E-08  00000
Finding J and K together
 Job number = 22, Threshold = 1.00E-11
Integral type ranges set in mkLRange.C for JobNum: 22  <1-6|1-6>
 MakeJK  time:  CPU       0.18 s  wall       0.19 s
Fock build time:  0.18 s (CPU) 0.19 s (wall)
DIIS Errors:  Max 1.12E-08 RMS 2.52E-09

Current DIIS subspace size = 12
REM_GRID_RESTART_DIIS = 0

   12    -153.0148897467      2.52E-09  00000 Convergence criterion met
 ---------------------------------------
 SCF time:  CPU 2.18 s  wall 2.37 s
 SCF   energy in the final basis set = -153.01488975
 Total energy in the final basis set = -153.01488975
drvman_main.C: 73: calling DrvMan  Calculating analytic gradient of the SCF energy
drvman.C : 218: Calculating analytic gradient of the SCF energy
drvman.C: 244: calling SCF_Grad for normal SCF gradient
 Job number = 111, Threshold = 1.00E-11
Integral type ranges set in mkLRange.C for JobNum: 11  <1-6|7-7>
 Warning:  Cost of integrals step H3 set to -999378295
 Warning:  Retrieved cost of -999378295 for integrals step H3
 Warning:  Retrieved cost of -999378295 for integrals step H3
 Warning:  Retrieved cost of -999378295 for integrals step H3
Finding J and K together
 ML is being used
 Job number = 122, Threshold = 1.00E-11
Integral type ranges set in mkLRange.C for JobNum: 22  <1-6|1-6>
 MakeJK  time:  CPU       0.46 s  wall       0.47 s
 Gradient of SCF Energy
            1           2           3           4           5           6
    1   0.0190287  -0.0788900   0.0009354   0.0094127   0.0719153  -0.0137735
    2   0.0250386  -0.0191804   0.0074919  -0.0054182   0.0108044  -0.0248147
    3   0.0064361  -0.0095133  -0.0017999  -0.0006184   0.0084977   0.0012218
            7           8           9          10
    1   0.0004990  -0.0107201   0.0055212  -0.0039287
    2  -0.0084017   0.0081588  -0.0026820   0.0090033
    3  -0.0006697  -0.0021940   0.0001088  -0.0014691
 Max gradient component =       7.889E-02
 RMS gradient           =       2.195E-02
drvman.C: 248: out of SCF_Grad for normal SCF gradient
 Gradient time:  CPU 0.48 s  wall 0.49 s
 ------------------------------------------------------------------------------
                     drvman        : Timing summary (seconds)
 ------------------------------------------------------------------------------
     job step          cpu (% of tot)      sys (% of tot)     wall (% of tot)
 ------------------------------------------------------------------------------
 ------------------------------------------------------------------------------
   Grand Totals     0.4840E+00          0.1000E-05          0.4920E+00
 ------------------------------------------------------------------------------
drvman_main.C: 77: out of DrvMan  Time for this dynamics step: 2.7 s (CPU) 2.9 s (wall)

TIME STEP #2 (t = 20.000 a.u. = 0.48378 fs)
--------------------------------------
 Instantaneous Temperature = 440.8 K
 ----------------------------------------------------------------
             Standard Nuclear Orientation (Angstroms)
    I     Atom           X                Y                Z
 ----------------------------------------------------------------
    1      C       3.8269083188     2.0171236732     0.9953266882
    2      C       2.7505588899     1.2142459351     0.8737263093
    3      H       3.7715946999     3.1070820429     0.9186622817
    4      H       4.8443019005     1.6048612536     1.0829464452
    5      C       1.4248245399     1.7195788434     0.6786444250
    6      C       0.3531203074     0.9225400594     0.5661899988
    7      H       0.4199464692    -0.1706163602     0.5877881464
    8      H      -0.6511502614     1.3553114180     0.4019054734
    9      H       2.9240102976     0.1422437382     0.9092670522
   10      H       1.2873367736     2.8078504411     0.6141537943
 ----------------------------------------------------------------
 Nuclear Repulsion Energy =   103.8255536102 hartrees
 There are       15 alpha and       15 beta electrons

                       Distance Matrix (Angstroms)
             C (  1)   C (  2)   H (  3)   H (  4)   C (  5)   C (  6)
   C (  2)  1.348305
   H (  3)  1.094050  2.151130
   H (  4)  1.101239  2.140120  1.853202
   C (  5)  2.441071  1.432128  2.736805  3.445206
   C (  6)  3.667353  2.434622  4.072153  4.572014  1.340323
   H (  7)  4.069359  2.726052  4.699610  4.792956  2.142632  1.095410
   H (  8)  4.565430  3.437170  4.785019  5.543112  2.125781  1.105821
   H (  9)  2.082740  1.086525  3.083627  2.420110  2.188317  2.708512
   H ( 10)  2.686999  2.178984  2.520675  3.784039  1.098816  2.104627
             H (  7)   H (  8)   H (  9)
   H (  8)  1.873568
   H (  9)  2.543927  3.809294
   H ( 10)  3.102310  2.431594  3.141855

 Applying Cartesian multipole field
    Component          Value
    ---------          -----
     (2,0,0)        1.00000E-11
     (0,2,0)        2.00000E-11
     (0,0,2)       -3.00000E-10
 Nucleus-field energy     =    -0.0000000078 hartrees
 ENuRep (before)= 103.8255536102
 ENucField = -0.0000000078
 ENuRep (after) = 103.8255536025
 Job number = 2, Threshold = 1.00E-11
Integral type ranges set in mkLRange.C for JobNum: 2  <1-6|1-6>
Symmetry turned off temporarily
Symmetry turned back on
 Job number = 11, Threshold = 1.00E-11
Integral type ranges set in mkLRange.C for JobNum: 11  <1-6|7-7>
 Smallest overlap matrix eigenvalue = 1.85E-01
 Multipole matrices computed through 2nd order
 Guess from superposition of atomic densities
 Warning:  Energy on first SCF cycle will be non-variational
 SAD guess density has 30.000000 electrons
 SCF convergence criterion is 10**(-8)
 A restricted Hartree-Fock SCF calculation will be
 performed using Pulay DIIS extrapolation
 SCF converges when DIIS error is below 1.0E-08
Finding J and K together
 Job number = 22, Threshold = 1.00E-11
Integral type ranges set in mkLRange.C for JobNum: 22  <1-6|1-6>
 MakeJK  time:  CPU       0.12 s  wall       0.12 s
Fock build time:  0.12 s (CPU) 0.12 s (wall)
DIIS Errors:  Max 1.09E+00 RMS 2.13E-01

Current DIIS subspace size = 1
REM_GRID_RESTART_DIIS = 0

 ---------------------------------------
  Cycle       Energy         DIIS Error
 ---------------------------------------
    1    -152.5841303004      2.13E-01  00000
Finding J and K together
 Job number = 22, Threshold = 1.00E-11
Integral type ranges set in mkLRange.C for JobNum: 22  <1-6|1-6>
 MakeJK  time:  CPU       0.15 s  wall       0.15 s
Fock build time:  0.15 s (CPU) 0.15 s (wall)
DIIS Errors:  Max 5.73E-02 RMS 1.29E-02

Current DIIS subspace size = 2
REM_GRID_RESTART_DIIS = 0

    2    -152.9861963525      1.29E-02  00000
Finding J and K together
 Job number = 22, Threshold = 1.00E-11
Integral type ranges set in mkLRange.C for JobNum: 22  <1-6|1-6>
 MakeJK  time:  CPU       0.12 s  wall       0.12 s
Fock build time:  0.12 s (CPU) 0.12 s (wall)
DIIS Errors:  Max 1.82E-02 RMS 3.57E-03

Current DIIS subspace size = 3
REM_GRID_RESTART_DIIS = 0

    3    -153.0106856990      3.57E-03  00000
Finding J and K together
 Job number = 22, Threshold = 1.00E-11
Integral type ranges set in mkLRange.C for JobNum: 22  <1-6|1-6>
 MakeJK  time:  CPU       0.14 s  wall       0.14 s
Fock build time:  0.14 s (CPU) 0.14 s (wall)
DIIS Errors:  Max 9.83E-03 RMS 1.38E-03

Current DIIS subspace size = 4
REM_GRID_RESTART_DIIS = 0

    4    -153.0125325772      1.38E-03  00000
Finding J and K together
 Job number = 22, Threshold = 1.00E-11
Integral type ranges set in mkLRange.C for JobNum: 22  <1-6|1-6>
 MakeJK  time:  CPU       0.14 s  wall       0.14 s
Fock build time:  0.14 s (CPU) 0.14 s (wall)
DIIS Errors:  Max 1.17E-03 RMS 1.01E-04

Current DIIS subspace size = 5
REM_GRID_RESTART_DIIS = 0

    5    -153.0127321985      1.01E-04  00000
Finding J and K together
 Job number = 22, Threshold = 1.00E-11
Integral type ranges set in mkLRange.C for JobNum: 22  <1-6|1-6>
 MakeJK  time:  CPU       0.19 s  wall       0.19 s
Fock build time:  0.19 s (CPU) 0.19 s (wall)
DIIS Errors:  Max 1.87E-04 RMS 1.59E-05

Current DIIS subspace size = 6
REM_GRID_RESTART_DIIS = 0

    6    -153.0127357751      1.59E-05  00000
Finding J and K together
 Job number = 22, Threshold = 1.00E-11
Integral type ranges set in mkLRange.C for JobNum: 22  <1-6|1-6>
 MakeJK  time:  CPU       0.19 s  wall       0.19 s
Fock build time:  0.20 s (CPU) 0.19 s (wall)
DIIS Errors:  Max 1.48E-05 RMS 2.46E-06

Current DIIS subspace size = 7
REM_GRID_RESTART_DIIS = 0

    7    -153.0127358669      2.46E-06  00000
Finding J and K together
 Job number = 22, Threshold = 1.00E-11
Integral type ranges set in mkLRange.C for JobNum: 22  <1-6|1-6>
 MakeJK  time:  CPU       0.20 s  wall       0.24 s
Fock build time:  0.20 s (CPU) 0.24 s (wall)
DIIS Errors:  Max 4.52E-06 RMS 8.50E-07

Current DIIS subspace size = 8
REM_GRID_RESTART_DIIS = 0

    8    -153.0127358681      8.50E-07  00000
Finding J and K together
 Job number = 22, Threshold = 1.00E-11
Integral type ranges set in mkLRange.C for JobNum: 22  <1-6|1-6>
 MakeJK  time:  CPU       0.20 s  wall       0.21 s
Fock build time:  0.20 s (CPU) 0.21 s (wall)
DIIS Errors:  Max 1.30E-06 RMS 2.64E-07

Current DIIS subspace size = 9
REM_GRID_RESTART_DIIS = 0

    9    -153.0127358682      2.64E-07  00000
Finding J and K together
 Job number = 22, Threshold = 1.00E-11
Integral type ranges set in mkLRange.C for JobNum: 22  <1-6|1-6>
 MakeJK  time:  CPU       0.19 s  wall       0.21 s
Fock build time:  0.19 s (CPU) 0.21 s (wall)
DIIS Errors:  Max 5.49E-07 RMS 1.05E-07

Current DIIS subspace size = 10
REM_GRID_RESTART_DIIS = 0

   10    -153.0127358682      1.05E-07  00000
Finding J and K together
 Job number = 22, Threshold = 1.00E-11
Integral type ranges set in mkLRange.C for JobNum: 22  <1-6|1-6>
 MakeJK  time:  CPU       0.19 s  wall       0.20 s
Fock build time:  0.19 s (CPU) 0.21 s (wall)
DIIS Errors:  Max 7.75E-08 RMS 1.45E-08

Current DIIS subspace size = 11
REM_GRID_RESTART_DIIS = 0

   11    -153.0127358682      1.45E-08  00000
Finding J and K together
 Job number = 22, Threshold = 1.00E-11
Integral type ranges set in mkLRange.C for JobNum: 22  <1-6|1-6>
 MakeJK  time:  CPU       0.20 s  wall       0.21 s
Fock build time:  0.20 s (CPU) 0.21 s (wall)
DIIS Errors:  Max 1.96E-08 RMS 4.09E-09

Current DIIS subspace size = 12
REM_GRID_RESTART_DIIS = 0

   12    -153.0127358682      4.09E-09  00000 Convergence criterion met
 ---------------------------------------
 SCF time:  CPU 2.06 s  wall 2.17 s
 SCF   energy in the final basis set = -153.01273587
 Total energy in the final basis set = -153.01273587
drvman_main.C: 73: calling DrvMan  Calculating analytic gradient of the SCF energy
drvman.C : 218: Calculating analytic gradient of the SCF energy
drvman.C: 244: calling SCF_Grad for normal SCF gradient
 Job number = 111, Threshold = 1.00E-11
Integral type ranges set in mkLRange.C for JobNum: 11  <1-6|7-7>
Finding J and K together
 ML is being used
 Job number = 122, Threshold = 1.00E-11
Integral type ranges set in mkLRange.C for JobNum: 22  <1-6|1-6>
 MakeJK  time:  CPU       0.48 s  wall       0.49 s
 Gradient of SCF Energy
            1           2           3           4           5           6
    1   0.0156763  -0.0903206   0.0028144   0.0163315   0.0763592  -0.0063614
    2   0.0249573  -0.0230912   0.0107854  -0.0058220   0.0076236  -0.0243514
    3   0.0110803  -0.0104699  -0.0034699  -0.0020494   0.0086185   0.0043778
            7           8           9          10
    1   0.0000783  -0.0178372   0.0077976  -0.0045382
    2  -0.0125755   0.0109199  -0.0016475   0.0132014
    3  -0.0017773  -0.0037627  -0.0002943  -0.0022530
 Max gradient component =       9.032E-02
 RMS gradient           =       2.431E-02
drvman.C: 248: out of SCF_Grad for normal SCF gradient
 Gradient time:  CPU 0.50 s  wall 0.51 s
 ------------------------------------------------------------------------------
                     drvman        : Timing summary (seconds)
 ------------------------------------------------------------------------------
     job step          cpu (% of tot)      sys (% of tot)     wall (% of tot)
 ------------------------------------------------------------------------------
 ------------------------------------------------------------------------------
   Grand Totals     0.4960E+00          0.1000E-05          0.5099E+00
 ------------------------------------------------------------------------------
drvman_main.C: 77: out of DrvMan  Time for this dynamics step: 2.6 s (CPU) 2.7 s (wall)

TIME STEP #3 (t = 40.000 a.u. = 0.96755 fs)
--------------------------------------
 Instantaneous Temperature = 395.9 K
 ----------------------------------------------------------------
             Standard Nuclear Orientation (Angstroms)
    I     Atom           X                Y                Z
 ----------------------------------------------------------------
    1      C       3.8268887193     2.0181578661     0.9984666744
    2      C       2.7477840160     1.2132101454     0.8744368044
    3      H       3.7825389006     3.1110488151     0.9079719031
    4      H       4.8564239477     1.6124247958     1.0560914154
    5      C       1.4249799718     1.7189172202     0.6805521263
    6      C       0.3534236576     0.9220707870     0.5662867248
    7      H       0.4155669379    -0.1754866313     0.5711755745
    8      H      -0.6562076933     1.3574889619     0.3946781211
    9      H       2.9376589717     0.1442799364     0.8995432261
   10      H       1.2878693555     2.8104609819     0.6155499039
 ----------------------------------------------------------------
 Nuclear Repulsion Energy =   103.7055738905 hartrees
 There are       15 alpha and       15 beta electrons

                       Distance Matrix (Angstroms)
             C (  1)   C (  2)   H (  3)   H (  4)   C (  5)   C (  6)
   C (  2)  1.351958
   H (  3)  1.097528  2.161859
   H (  4)  1.108099  2.153772  1.849606
   C (  5)  2.441266  1.429385  2.747332  3.453575
   C (  6)  3.667853  2.431600  4.082549  4.581867  1.340244
   H (  7)  4.078207  2.731242  4.717123  4.811755  2.149336  1.099326
   H (  8)  4.571564  3.440660  4.800095  5.558018  2.131595  1.112832
   H (  9)  2.076520  1.085953  3.084738  2.421077  2.194456  2.719245
   H ( 10)  2.687190  2.179354  2.529672  3.789980  1.102040  2.107518
             H (  7)   H (  8)   H (  9)
   H (  8)  1.878794
   H (  9)  2.563401  3.826571
   H ( 10)  3.111071  2.437078  3.148171

 Applying Cartesian multipole field
    Component          Value
    ---------          -----
     (2,0,0)        1.00000E-11
     (0,2,0)        2.00000E-11
     (0,0,2)       -3.00000E-10
 Nucleus-field energy     =    -0.0000000077 hartrees
 ENuRep (before)= 103.7055738905
 ENucField = -0.0000000077
 ENuRep (after) = 103.7055738828
 Job number = 2, Threshold = 1.00E-11
Integral type ranges set in mkLRange.C for JobNum: 2  <1-6|1-6>
Symmetry turned off temporarily
Symmetry turned back on
 Job number = 11, Threshold = 1.00E-11
Integral type ranges set in mkLRange.C for JobNum: 11  <1-6|7-7>
 Smallest overlap matrix eigenvalue = 1.86E-01
 Multipole matrices computed through 2nd order
 Guess from superposition of atomic densities
 Warning:  Energy on first SCF cycle will be non-variational
 SAD guess density has 30.000000 electrons
 SCF convergence criterion is 10**(-8)
 A restricted Hartree-Fock SCF calculation will be
 performed using Pulay DIIS extrapolation
 SCF converges when DIIS error is below 1.0E-08
Finding J and K together
 Job number = 22, Threshold = 1.00E-11
Integral type ranges set in mkLRange.C for JobNum: 22  <1-6|1-6>
 MakeJK  time:  CPU       0.15 s  wall       0.16 s
Fock build time:  0.15 s (CPU) 0.16 s (wall)
DIIS Errors:  Max 1.09E+00 RMS 2.12E-01

Current DIIS subspace size = 1
REM_GRID_RESTART_DIIS = 0

 ---------------------------------------
  Cycle       Energy         DIIS Error
 ---------------------------------------
    1    -152.5625273479      2.12E-01  00000
Finding J and K together
 Job number = 22, Threshold = 1.00E-11
Integral type ranges set in mkLRange.C for JobNum: 22  <1-6|1-6>
 MakeJK  time:  CPU       0.19 s  wall       0.21 s
Fock build time:  0.19 s (CPU) 0.21 s (wall)
DIIS Errors:  Max 5.75E-02 RMS 1.30E-02

Current DIIS subspace size = 2
REM_GRID_RESTART_DIIS = 0

    2    -152.9837035015      1.30E-02  00000
Finding J and K together
 Job number = 22, Threshold = 1.00E-11
Integral type ranges set in mkLRange.C for JobNum: 22  <1-6|1-6>
 MakeJK  time:  CPU       0.20 s  wall       0.23 s
Fock build time:  0.20 s (CPU) 0.23 s (wall)
DIIS Errors:  Max 1.85E-02 RMS 3.60E-03

Current DIIS subspace size = 3
REM_GRID_RESTART_DIIS = 0

    3    -153.0083562458      3.60E-03  00000
Finding J and K together
 Job number = 22, Threshold = 1.00E-11
Integral type ranges set in mkLRange.C for JobNum: 22  <1-6|1-6>
 MakeJK  time:  CPU       0.18 s  wall       0.22 s
Fock build time:  0.18 s (CPU) 0.22 s (wall)
DIIS Errors:  Max 1.04E-02 RMS 1.43E-03

Current DIIS subspace size = 4
REM_GRID_RESTART_DIIS = 0

    4    -153.0102276434      1.43E-03  00000
Finding J and K together
 Job number = 22, Threshold = 1.00E-11
Integral type ranges set in mkLRange.C for JobNum: 22  <1-6|1-6>
 MakeJK  time:  CPU       0.19 s  wall       0.20 s
Fock build time:  0.19 s (CPU) 0.20 s (wall)
DIIS Errors:  Max 1.19E-03 RMS 1.02E-04

Current DIIS subspace size = 5
REM_GRID_RESTART_DIIS = 0

    5    -153.0104434081      1.02E-04  00000
Finding J and K together
 Job number = 22, Threshold = 1.00E-11
Integral type ranges set in mkLRange.C for JobNum: 22  <1-6|1-6>
 MakeJK  time:  CPU       0.20 s  wall       0.20 s
Fock build time:  0.20 s (CPU) 0.20 s (wall)
DIIS Errors:  Max 2.07E-04 RMS 1.77E-05

Current DIIS subspace size = 6
REM_GRID_RESTART_DIIS = 0

    6    -153.0104471209      1.77E-05  00000
Finding J and K together
 Job number = 22, Threshold = 1.00E-11
Integral type ranges set in mkLRange.C for JobNum: 22  <1-6|1-6>
 MakeJK  time:  CPU       0.19 s  wall       0.20 s
Fock build time:  0.19 s (CPU) 0.20 s (wall)
DIIS Errors:  Max 1.77E-05 RMS 3.20E-06

Current DIIS subspace size = 7
REM_GRID_RESTART_DIIS = 0

    7    -153.0104472341      3.20E-06  00000
Finding J and K together
 Job number = 22, Threshold = 1.00E-11
Integral type ranges set in mkLRange.C for JobNum: 22  <1-6|1-6>
 MakeJK  time:  CPU       0.19 s  wall       0.20 s
Fock build time:  0.19 s (CPU) 0.20 s (wall)
DIIS Errors:  Max 6.36E-06 RMS 1.18E-06

Current DIIS subspace size = 8
REM_GRID_RESTART_DIIS = 0

    8    -153.0104472360      1.18E-06  00000
Finding J and K together
 Job number = 22, Threshold = 1.00E-11
Integral type ranges set in mkLRange.C for JobNum: 22  <1-6|1-6>
 MakeJK  time:  CPU       0.19 s  wall       0.20 s
Fock build time:  0.19 s (CPU) 0.20 s (wall)
DIIS Errors:  Max 1.93E-06 RMS 3.75E-07

Current DIIS subspace size = 9
REM_GRID_RESTART_DIIS = 0

    9    -153.0104472362      3.75E-07  00000
Finding J and K together
 Job number = 22, Threshold = 1.00E-11
Integral type ranges set in mkLRange.C for JobNum: 22  <1-6|1-6>
 MakeJK  time:  CPU       0.17 s  wall       0.18 s
Fock build time:  0.17 s (CPU) 0.18 s (wall)
DIIS Errors:  Max 7.63E-07 RMS 1.40E-07

Current DIIS subspace size = 10
REM_GRID_RESTART_DIIS = 0

   10    -153.0104472362      1.40E-07  00000
Finding J and K together
 Job number = 22, Threshold = 1.00E-11
Integral type ranges set in mkLRange.C for JobNum: 22  <1-6|1-6>
 MakeJK  time:  CPU       0.16 s  wall       0.16 s
Fock build time:  0.16 s (CPU) 0.16 s (wall)
DIIS Errors:  Max 8.72E-08 RMS 1.68E-08

Current DIIS subspace size = 11
REM_GRID_RESTART_DIIS = 0

   11    -153.0104472362      1.68E-08  00000
Finding J and K together
 Job number = 22, Threshold = 1.00E-11
Integral type ranges set in mkLRange.C for JobNum: 22  <1-6|1-6>
 MakeJK  time:  CPU       0.16 s  wall       0.16 s
Fock build time:  0.16 s (CPU) 0.16 s (wall)
DIIS Errors:  Max 2.56E-08 RMS 5.20E-09

Current DIIS subspace size = 12
REM_GRID_RESTART_DIIS = 0

   12    -153.0104472362      5.20E-09  00000 Convergence criterion met
 ---------------------------------------
 SCF time:  CPU 2.19 s  wall 2.35 s
 SCF   energy in the final basis set = -153.01044724
 Total energy in the final basis set = -153.01044724
drvman_main.C: 73: calling DrvMan  Calculating analytic gradient of the SCF energy
drvman.C : 218: Calculating analytic gradient of the SCF energy
drvman.C: 244: calling SCF_Grad for normal SCF gradient
 Job number = 111, Threshold = 1.00E-11
Integral type ranges set in mkLRange.C for JobNum: 11  <1-6|7-7>
Finding J and K together
 ML is being used
 Job number = 122, Threshold = 1.00E-11
Integral type ranges set in mkLRange.C for JobNum: 22  <1-6|1-6>
 MakeJK  time:  CPU       0.49 s  wall       0.56 s
 Gradient of SCF Energy
            1           2           3           4           5           6
    1   0.0119180  -0.0989581   0.0048246   0.0222162   0.0784399  -0.0000625
    2   0.0242030  -0.0261442   0.0133019  -0.0056914   0.0053623  -0.0231817
    3   0.0158479  -0.0110457  -0.0051447  -0.0038322   0.0084163   0.0074116
            7           8           9          10
    1  -0.0004862  -0.0229053   0.0098075  -0.0047941
    2  -0.0158535   0.0127173  -0.0006825   0.0159689
    3  -0.0029831  -0.0050581  -0.0007007  -0.0029114
 Max gradient component =       9.896E-02
 RMS gradient           =       2.617E-02
drvman.C: 248: out of SCF_Grad for normal SCF gradient
 Gradient time:  CPU 0.51 s  wall 0.58 s
 ------------------------------------------------------------------------------
                     drvman        : Timing summary (seconds)
 ------------------------------------------------------------------------------
     job step          cpu (% of tot)      sys (% of tot)     wall (% of tot)
 ------------------------------------------------------------------------------
 ------------------------------------------------------------------------------
   Grand Totals     0.5080E+00          0.2000E-05          0.5791E+00
 ------------------------------------------------------------------------------
drvman_main.C: 77: out of DrvMan  Time for this dynamics step: 2.7 s (CPU) 3.0 s (wall)

TIME STEP #4 (t = 60.000 a.u. = 1.45133 fs)
--------------------------------------
 Instantaneous Temperature = 348.3 K
 ----------------------------------------------------------------
             Standard Nuclear Orientation (Angstroms)
    I     Atom           X                Y                Z
 ----------------------------------------------------------------
    1      C       3.8267537951     2.0189578582     1.0014533073
    2      C       2.7459667131     1.2124273408     0.8752541838
    3      H       3.7929272300     3.1134829935     0.8978742817
    4      H       4.8659863329     1.6206440849     1.0296779129
    5      C       1.4243763769     1.7182037088     0.6823783867
    6      C       0.3537276125     0.9218258328     0.5663117318
    7      H       0.4112434254    -0.1785303217     0.5549067071
    8      H      -0.6586260626     1.3582012695     0.3880335430
    9      H       2.9501776626     0.1463947706     0.8899001321
   10      H       1.2889542943     2.8112316452     0.6172814499
 ----------------------------------------------------------------
 Nuclear Repulsion Energy =   103.6261004067 hartrees
 There are       15 alpha and       15 beta electrons

                       Distance Matrix (Angstroms)
             C (  1)   C (  2)   H (  3)   H (  4)   C (  5)   C (  6)
   C (  2)  1.354444
   H (  3)  1.099936  2.170403
   H (  4)  1.113308  2.164479  1.843203
   C (  5)  2.442065  1.428150  2.757404  3.460464
   C (  6)  3.668100  2.429548  4.091624  4.589503  1.339395
   H (  7)  4.085838  2.736479  4.731888  4.827750  2.154133  1.101917
   H (  8)  4.575097  3.442366  4.812201  5.567937  2.134277  1.116721
   H (  9)  2.070585  1.085515  3.084462  2.421419  2.200390  2.729021
   H ( 10)  2.686208  2.178442  2.537709  3.792457  1.103307  2.108815
             H (  7)   H (  8)   H (  9)
   H (  8)  1.879897
   H (  9)  2.581469  3.839767
   H ( 10)  3.116560  2.440680  3.152037

 Applying Cartesian multipole field
    Component          Value
    ---------          -----
     (2,0,0)        1.00000E-11
     (0,2,0)        2.00000E-11
     (0,0,2)       -3.00000E-10
 Nucleus-field energy     =    -0.0000000076 hartrees
 ENuRep (before)= 103.6261004067
 ENucField = -0.0000000076
 ENuRep (after) = 103.6261003991
 Job number = 2, Threshold = 1.00E-11
Integral type ranges set in mkLRange.C for JobNum: 2  <1-6|1-6>
Symmetry turned off temporarily
Symmetry turned back on
 Job number = 11, Threshold = 1.00E-11
Integral type ranges set in mkLRange.C for JobNum: 11  <1-6|7-7>
 Smallest overlap matrix eigenvalue = 1.86E-01
 Multipole matrices computed through 2nd order
 Guess from superposition of atomic densities
 Warning:  Energy on first SCF cycle will be non-variational
 SAD guess density has 30.000000 electrons
 SCF convergence criterion is 10**(-8)
 A restricted Hartree-Fock SCF calculation will be
 performed using Pulay DIIS extrapolation
 SCF converges when DIIS error is below 1.0E-08
Finding J and K together
 Job number = 22, Threshold = 1.00E-11
Integral type ranges set in mkLRange.C for JobNum: 22  <1-6|1-6>
 MakeJK  time:  CPU       0.15 s  wall       0.18 s
Fock build time:  0.15 s (CPU) 0.18 s (wall)
DIIS Errors:  Max 1.09E+00 RMS 2.11E-01

Current DIIS subspace size = 1
REM_GRID_RESTART_DIIS = 0

 ---------------------------------------
  Cycle       Energy         DIIS Error
 ---------------------------------------
    1    -152.5496242868      2.11E-01  00000
Finding J and K together
 Job number = 22, Threshold = 1.00E-11
Integral type ranges set in mkLRange.C for JobNum: 22  <1-6|1-6>
 MakeJK  time:  CPU       0.14 s  wall       0.15 s
Fock build time:  0.14 s (CPU) 0.15 s (wall)
DIIS Errors:  Max 5.77E-02 RMS 1.30E-02

Current DIIS subspace size = 2
REM_GRID_RESTART_DIIS = 0

    2    -152.9814993942      1.30E-02  00000
Finding J and K together
 Job number = 22, Threshold = 1.00E-11
Integral type ranges set in mkLRange.C for JobNum: 22  <1-6|1-6>
 MakeJK  time:  CPU       0.14 s  wall       0.14 s
Fock build time:  0.14 s (CPU) 0.14 s (wall)
DIIS Errors:  Max 1.89E-02 RMS 3.64E-03

Current DIIS subspace size = 3
REM_GRID_RESTART_DIIS = 0

    3    -153.0062884887      3.64E-03  00000
Finding J and K together
 Job number = 22, Threshold = 1.00E-11
Integral type ranges set in mkLRange.C for JobNum: 22  <1-6|1-6>
 MakeJK  time:  CPU       0.13 s  wall       0.13 s
Fock build time:  0.13 s (CPU) 0.13 s (wall)
DIIS Errors:  Max 1.10E-02 RMS 1.49E-03

Current DIIS subspace size = 4
REM_GRID_RESTART_DIIS = 0

    4    -153.0081798147      1.49E-03  00000
Finding J and K together
 Job number = 22, Threshold = 1.00E-11
Integral type ranges set in mkLRange.C for JobNum: 22  <1-6|1-6>
 MakeJK  time:  CPU       0.17 s  wall       0.17 s
Fock build time:  0.17 s (CPU) 0.17 s (wall)
DIIS Errors:  Max 1.21E-03 RMS 1.04E-04

Current DIIS subspace size = 5
REM_GRID_RESTART_DIIS = 0

    5    -153.0084123869      1.04E-04  00000
Finding J and K together
 Job number = 22, Threshold = 1.00E-11
Integral type ranges set in mkLRange.C for JobNum: 22  <1-6|1-6>
 MakeJK  time:  CPU       0.13 s  wall       0.13 s
Fock build time:  0.13 s (CPU) 0.13 s (wall)
DIIS Errors:  Max 2.24E-04 RMS 1.95E-05

Current DIIS subspace size = 6
REM_GRID_RESTART_DIIS = 0

    6    -153.0084161917      1.95E-05  00000
Finding J and K together
 Job number = 22, Threshold = 1.00E-11
Integral type ranges set in mkLRange.C for JobNum: 22  <1-6|1-6>
 MakeJK  time:  CPU       0.13 s  wall       0.13 s
Fock build time:  0.13 s (CPU) 0.14 s (wall)
DIIS Errors:  Max 2.04E-05 RMS 3.96E-06

Current DIIS subspace size = 7
REM_GRID_RESTART_DIIS = 0

    7    -153.0084163264      3.96E-06  00000
Finding J and K together
 Job number = 22, Threshold = 1.00E-11
Integral type ranges set in mkLRange.C for JobNum: 22  <1-6|1-6>
 MakeJK  time:  CPU       0.18 s  wall       0.19 s
Fock build time:  0.18 s (CPU) 0.19 s (wall)
DIIS Errors:  Max 7.82E-06 RMS 1.43E-06

Current DIIS subspace size = 8
REM_GRID_RESTART_DIIS = 0

    8    -153.0084163291      1.43E-06  00000
Finding J and K together
 Job number = 22, Threshold = 1.00E-11
Integral type ranges set in mkLRange.C for JobNum: 22  <1-6|1-6>
 MakeJK  time:  CPU       0.18 s  wall       0.18 s
Fock build time:  0.18 s (CPU) 0.18 s (wall)
DIIS Errors:  Max 2.54E-06 RMS 4.77E-07

Current DIIS subspace size = 9
REM_GRID_RESTART_DIIS = 0

    9    -153.0084163295      4.77E-07  00000
Finding J and K together
 Job number = 22, Threshold = 1.00E-11
Integral type ranges set in mkLRange.C for JobNum: 22  <1-6|1-6>
 MakeJK  time:  CPU       0.17 s  wall       0.18 s
Fock build time:  0.17 s (CPU) 0.18 s (wall)
DIIS Errors:  Max 9.28E-07 RMS 1.66E-07

Current DIIS subspace size = 10
REM_GRID_RESTART_DIIS = 0

   10    -153.0084163295      1.66E-07  00000
Finding J and K together
 Job number = 22, Threshold = 1.00E-11
Integral type ranges set in mkLRange.C for JobNum: 22  <1-6|1-6>
 MakeJK  time:  CPU       0.14 s  wall       0.14 s
Fock build time:  0.14 s (CPU) 0.14 s (wall)
DIIS Errors:  Max 9.14E-08 RMS 1.83E-08

Current DIIS subspace size = 11
REM_GRID_RESTART_DIIS = 0

   11    -153.0084163295      1.83E-08  00000
Finding J and K together
 Job number = 22, Threshold = 1.00E-11
Integral type ranges set in mkLRange.C for JobNum: 22  <1-6|1-6>
 MakeJK  time:  CPU       0.12 s  wall       0.12 s
Fock build time:  0.12 s (CPU) 0.12 s (wall)
DIIS Errors:  Max 2.93E-08 RMS 5.79E-09

Current DIIS subspace size = 12
REM_GRID_RESTART_DIIS = 0

   12    -153.0084163295      5.79E-09  00000 Convergence criterion met
 ---------------------------------------
 SCF time:  CPU 1.80 s  wall 1.87 s
 SCF   energy in the final basis set = -153.00841633
 Total energy in the final basis set = -153.00841633
drvman_main.C: 73: calling DrvMan  Calculating analytic gradient of the SCF energy
drvman.C : 218: Calculating analytic gradient of the SCF energy
drvman.C: 244: calling SCF_Grad for normal SCF gradient
 Job number = 111, Threshold = 1.00E-11
Integral type ranges set in mkLRange.C for JobNum: 11  <1-6|7-7>
Finding J and K together
 ML is being used
 Job number = 122, Threshold = 1.00E-11
Integral type ranges set in mkLRange.C for JobNum: 22  <1-6|1-6>
 MakeJK  time:  CPU       0.43 s  wall       0.49 s
 Gradient of SCF Energy
            1           2           3           4           5           6
    1   0.0082917  -0.1046575   0.0069173   0.0266016   0.0780731   0.0047362
    2   0.0229545  -0.0283863   0.0148104  -0.0049214   0.0043133  -0.0215121
    3   0.0206107  -0.0112303  -0.0067729  -0.0058846   0.0078568   0.0101910
            7           8           9          10
    1  -0.0011845  -0.0256319   0.0115166  -0.0046626
    2  -0.0179532   0.0134275   0.0001821   0.0170852
    3  -0.0042426  -0.0059957  -0.0011077  -0.0034248
 Max gradient component =       1.047E-01
 RMS gradient           =       2.734E-02
drvman.C: 248: out of SCF_Grad for normal SCF gradient
 Gradient time:  CPU 0.45 s  wall 0.51 s
 ------------------------------------------------------------------------------
                     drvman        : Timing summary (seconds)
 ------------------------------------------------------------------------------
     job step          cpu (% of tot)      sys (% of tot)     wall (% of tot)
 ------------------------------------------------------------------------------
 ------------------------------------------------------------------------------
   Grand Totals     0.4520E+00          0.3000E-05          0.5126E+00
 ------------------------------------------------------------------------------
drvman_main.C: 77: out of DrvMan  Time for this dynamics step: 2.3 s (CPU) 2.4 s (wall)

TIME STEP #5 (t = 80.000 a.u. = 1.93511 fs)
--------------------------------------
 Instantaneous Temperature = 305.9 K
 ----------------------------------------------------------------
             Standard Nuclear Orientation (Angstroms)
    I     Atom           X                Y                Z
 ----------------------------------------------------------------
    1      C       3.8265386360     2.0195357302     1.0042404999
    2      C       2.7451621322     1.2119192172     0.8761802335
    3      H       3.8025185747     3.1142107784     0.8885570052
    4      H       4.8724837865     1.6294303946     1.0039424115
    5      C       1.4230173055     1.7174484594     0.6841286204
    6      C       0.3539857375     0.9217890411     0.5662381257
    7      H       0.4070563820    -0.1795055161     0.5391266516
    8      H      -0.6580912249     1.3573665162     0.3820797643
    9      H       2.9613694534     0.1484886265     0.8803846683
   10      H       1.2905764369     2.8100338148     0.6194075873
 ----------------------------------------------------------------
 Nuclear Repulsion Energy =   103.5911160348 hartrees
 There are       15 alpha and       15 beta electrons

                       Distance Matrix (Angstroms)
             C (  1)   C (  2)   H (  3)   H (  4)   C (  5)   C (  6)
   C (  2)  1.355736
   H (  3)  1.101033  2.176435
   H (  4)  1.116326  2.171667  1.833770
   C (  5)  2.443490  1.428464  2.766724  3.465378
   C (  6)  3.668176  2.428572  4.099144  4.594471  1.337834
   H (  7)  4.092062  2.741607  4.743399  4.840284  2.156765  1.102906
   H (  8)  4.575747  3.442009  4.820795  5.572072  2.133519  1.117113
   H (  9)  2.065109  1.085195  3.082711  2.420912  2.206055  2.737724
   H ( 10)  2.684043  2.176171  2.544566  3.791009  1.102485  2.108435
             H (  7)   H (  8)   H (  9)
   H (  8)  1.876480
   H (  9)  2.597798  3.848401
   H ( 10)  3.118397  2.442104  3.153329

 Applying Cartesian multipole field
    Component          Value
    ---------          -----
     (2,0,0)        1.00000E-11
     (0,2,0)        2.00000E-11
     (0,0,2)       -3.00000E-10
 Nucleus-field energy     =    -0.0000000076 hartrees
 ENuRep (before)= 103.5911160348
 ENucField = -0.0000000076
 ENuRep (after) = 103.5911160273
 Job number = 2, Threshold = 1.00E-11
Integral type ranges set in mkLRange.C for JobNum: 2  <1-6|1-6>
Symmetry turned off temporarily
Symmetry turned back on
 Job number = 11, Threshold = 1.00E-11
Integral type ranges set in mkLRange.C for JobNum: 11  <1-6|7-7>
 Smallest overlap matrix eigenvalue = 1.86E-01
 Multipole matrices computed through 2nd order
 Guess from superposition of atomic densities
 Warning:  Energy on first SCF cycle will be non-variational
 SAD guess density has 30.000000 electrons
 SCF convergence criterion is 10**(-8)
 A restricted Hartree-Fock SCF calculation will be
 performed using Pulay DIIS extrapolation
 SCF converges when DIIS error is below 1.0E-08
Finding J and K together
 Job number = 22, Threshold = 1.00E-11
Integral type ranges set in mkLRange.C for JobNum: 22  <1-6|1-6>
 MakeJK  time:  CPU       0.14 s  wall       0.15 s
Fock build time:  0.14 s (CPU) 0.15 s (wall)
DIIS Errors:  Max 1.09E+00 RMS 2.11E-01

Current DIIS subspace size = 1
REM_GRID_RESTART_DIIS = 0

 ---------------------------------------
  Cycle       Energy         DIIS Error
 ---------------------------------------
    1    -152.5463472455      2.11E-01  00000
Finding J and K together
 Job number = 22, Threshold = 1.00E-11
Integral type ranges set in mkLRange.C for JobNum: 22  <1-6|1-6>
 MakeJK  time:  CPU       0.16 s  wall       0.16 s
Fock build time:  0.16 s (CPU) 0.16 s (wall)
DIIS Errors:  Max 5.79E-02 RMS 1.30E-02

Current DIIS subspace size = 2
REM_GRID_RESTART_DIIS = 0

    2    -152.9798905116      1.30E-02  00000
Finding J and K together
 Job number = 22, Threshold = 1.00E-11
Integral type ranges set in mkLRange.C for JobNum: 22  <1-6|1-6>
 MakeJK  time:  CPU       0.19 s  wall       0.19 s
Fock build time:  0.19 s (CPU) 0.19 s (wall)
DIIS Errors:  Max 1.92E-02 RMS 3.68E-03

Current DIIS subspace size = 3
REM_GRID_RESTART_DIIS = 0

    3    -153.0047792645      3.68E-03  00000
Finding J and K together
 Job number = 22, Threshold = 1.00E-11
Integral type ranges set in mkLRange.C for JobNum: 22  <1-6|1-6>
 MakeJK  time:  CPU       0.19 s  wall       0.20 s
Fock build time:  0.19 s (CPU) 0.20 s (wall)
DIIS Errors:  Max 1.16E-02 RMS 1.54E-03

Current DIIS subspace size = 4
REM_GRID_RESTART_DIIS = 0

    4    -153.0066849902      1.54E-03  00000
Finding J and K together
 Job number = 22, Threshold = 1.00E-11
Integral type ranges set in mkLRange.C for JobNum: 22  <1-6|1-6>
 MakeJK  time:  CPU       0.19 s  wall       0.20 s
Fock build time:  0.19 s (CPU) 0.20 s (wall)
DIIS Errors:  Max 1.21E-03 RMS 1.05E-04

Current DIIS subspace size = 5
REM_GRID_RESTART_DIIS = 0

    5    -153.0069342419      1.05E-04  00000
Finding J and K together
 Job number = 22, Threshold = 1.00E-11
Integral type ranges set in mkLRange.C for JobNum: 22  <1-6|1-6>
 MakeJK  time:  CPU       0.19 s  wall       0.23 s
Fock build time:  0.19 s (CPU) 0.24 s (wall)
DIIS Errors:  Max 2.37E-04 RMS 2.09E-05

Current DIIS subspace size = 6
REM_GRID_RESTART_DIIS = 0

    6    -153.0069380903      2.09E-05  00000
Finding J and K together
 Job number = 22, Threshold = 1.00E-11
Integral type ranges set in mkLRange.C for JobNum: 22  <1-6|1-6>
 MakeJK  time:  CPU       0.19 s  wall       0.21 s
Fock build time:  0.19 s (CPU) 0.21 s (wall)
DIIS Errors:  Max 2.28E-05 RMS 4.66E-06

Current DIIS subspace size = 7
REM_GRID_RESTART_DIIS = 0

    7    -153.0069382435      4.66E-06  00000
Finding J and K together
 Job number = 22, Threshold = 1.00E-11
Integral type ranges set in mkLRange.C for JobNum: 22  <1-6|1-6>
 MakeJK  time:  CPU       0.18 s  wall       0.18 s
Fock build time:  0.18 s (CPU) 0.18 s (wall)
DIIS Errors:  Max 8.88E-06 RMS 1.61E-06

Current DIIS subspace size = 8
REM_GRID_RESTART_DIIS = 0

    8    -153.0069382472      1.61E-06  00000
Finding J and K together
 Job number = 22, Threshold = 1.00E-11
Integral type ranges set in mkLRange.C for JobNum: 22  <1-6|1-6>
 MakeJK  time:  CPU       0.13 s  wall       0.13 s
Fock build time:  0.13 s (CPU) 0.13 s (wall)
DIIS Errors:  Max 3.08E-06 RMS 5.66E-07

Current DIIS subspace size = 9
REM_GRID_RESTART_DIIS = 0

    9    -153.0069382478      5.66E-07  00000
Finding J and K together
 Job number = 22, Threshold = 1.00E-11
Integral type ranges set in mkLRange.C for JobNum: 22  <1-6|1-6>
 MakeJK  time:  CPU       0.16 s  wall       0.17 s
Fock build time:  0.17 s (CPU) 0.17 s (wall)
DIIS Errors:  Max 1.04E-06 RMS 1.85E-07

Current DIIS subspace size = 10
REM_GRID_RESTART_DIIS = 0

   10    -153.0069382479      1.85E-07  00000
Finding J and K together
 Job number = 22, Threshold = 1.00E-11
Integral type ranges set in mkLRange.C for JobNum: 22  <1-6|1-6>
 MakeJK  time:  CPU       0.20 s  wall       0.19 s
Fock build time:  0.20 s (CPU) 0.19 s (wall)
DIIS Errors:  Max 9.77E-08 RMS 1.88E-08

Current DIIS subspace size = 11
REM_GRID_RESTART_DIIS = 0

   11    -153.0069382479      1.88E-08  00000
Finding J and K together
 Job number = 22, Threshold = 1.00E-11
Integral type ranges set in mkLRange.C for JobNum: 22  <1-6|1-6>
 MakeJK  time:  CPU       0.19 s  wall       0.19 s
Fock build time:  0.19 s (CPU) 0.19 s (wall)
DIIS Errors:  Max 3.04E-08 RMS 5.84E-09

Current DIIS subspace size = 12
REM_GRID_RESTART_DIIS = 0

   12    -153.0069382479      5.84E-09  00000 Convergence criterion met
 ---------------------------------------
 SCF time:  CPU 2.15 s  wall 2.24 s
 SCF   energy in the final basis set = -153.00693825
 Total energy in the final basis set = -153.00693825
drvman_main.C: 73: calling DrvMan  Calculating analytic gradient of the SCF energy
drvman.C : 218: Calculating analytic gradient of the SCF energy
drvman.C: 244: calling SCF_Grad for normal SCF gradient
 Job number = 111, Threshold = 1.00E-11
Integral type ranges set in mkLRange.C for JobNum: 11  <1-6|7-7>
Finding J and K together
 ML is being used
 Job number = 122, Threshold = 1.00E-11
Integral type ranges set in mkLRange.C for JobNum: 22  <1-6|1-6>
 MakeJK  time:  CPU       0.48 s  wall       0.48 s
 Gradient of SCF Energy
            1           2           3           4           5           6
    1   0.0052108  -0.1073598   0.0090318   0.0291689   0.0752642   0.0078072
    2   0.0213811  -0.0298624   0.0151625  -0.0034782   0.0046055  -0.0195208
    3   0.0252024  -0.0110269  -0.0083015  -0.0080834   0.0069248   0.0125982
            7           8           9          10
    1  -0.0019957  -0.0258837   0.0128974  -0.0041410
    2  -0.0186887   0.0130037   0.0009288   0.0164684
    3  -0.0054993  -0.0065156  -0.0015132  -0.0037854
 Max gradient component =       1.074E-01
 RMS gradient           =       2.771E-02
drvman.C: 248: out of SCF_Grad for normal SCF gradient
 Gradient time:  CPU 0.50 s  wall 0.50 s
 ------------------------------------------------------------------------------
                     drvman        : Timing summary (seconds)
 ------------------------------------------------------------------------------
     job step          cpu (% of tot)      sys (% of tot)     wall (% of tot)
 ------------------------------------------------------------------------------
 ------------------------------------------------------------------------------
   Grand Totals     0.4960E+00          0.2000E-05          0.4993E+00
 ------------------------------------------------------------------------------
drvman_main.C: 77: out of DrvMan  Time for this dynamics step: 2.7 s (CPU) 2.8 s (wall)

TIME STEP #6 (t = 100.000 a.u. = 2.41888 fs)
--------------------------------------
 Instantaneous Temperature = 274.9 K
 ----------------------------------------------------------------
             Standard Nuclear Orientation (Angstroms)
    I     Atom           X                Y                Z
 ----------------------------------------------------------------
    1      C       3.8262730545     2.0199067070     1.0067838209
    2      C       2.7453964217     1.2117000585     0.8772129851
    3      H       3.8110693151     3.1131915947     0.8801962017
    4      H       4.8756205063     1.6386174524     0.9791382519
    5      C       1.4209299377     1.7166486446     0.6858118464
    6      C       0.3541683162     0.9219411425     0.5660426123
    7      H       0.4030992708    -0.1783274691     0.5239802068
    8      H      -0.6545741594     1.3550335206     0.3768766922
    9      H       2.9710752556     0.1504754669     0.8710435469
   10      H       1.2926756915     2.8069385607     0.6219698632
 ----------------------------------------------------------------
 Nuclear Repulsion Energy =   103.6017558876 hartrees
 There are       15 alpha and       15 beta electrons

                       Distance Matrix (Angstroms)
             C (  1)   C (  2)   H (  3)   H (  4)   C (  5)   C (  6)
   C (  2)  1.355832
   H (  3)  1.100694  2.179756
   H (  4)  1.116815  2.174972  1.821381
   C (  5)  2.445540  1.430321  2.775047  3.467999
   C (  6)  3.668146  2.428736  4.104928  4.596499  1.335622
   H (  7)  4.096761  2.746508  4.751342  4.848907  2.157105  1.102159
   H (  8)  4.573492  3.439576  4.825601  5.570116  2.129301  1.113963
   H (  9)  2.060233  1.084973  3.079507  2.419410  2.211371  2.745248
   H ( 10)  2.680787  2.172633  2.550055  3.785504  1.099662  2.106452
             H (  7)   H (  8)   H (  9)
   H (  8)  1.868558
   H (  9)  2.612100  3.852336
   H ( 10)  3.116530  2.441287  3.152120

 Applying Cartesian multipole field
    Component          Value
    ---------          -----
     (2,0,0)        1.00000E-11
     (0,2,0)        2.00000E-11
     (0,0,2)       -3.00000E-10
 Nucleus-field energy     =    -0.0000000075 hartrees
 ENuRep (before)= 103.6017558876
 ENucField = -0.0000000075
 ENuRep (after) = 103.6017558801
 Job number = 2, Threshold = 1.00E-11
Integral type ranges set in mkLRange.C for JobNum: 2  <1-6|1-6>
Symmetry turned off temporarily
Symmetry turned back on
 Job number = 11, Threshold = 1.00E-11
Integral type ranges set in mkLRange.C for JobNum: 11  <1-6|7-7>
 Smallest overlap matrix eigenvalue = 1.85E-01
 Multipole matrices computed through 2nd order
 Guess from superposition of atomic densities
 Warning:  Energy on first SCF cycle will be non-variational
 SAD guess density has 30.000000 electrons
 SCF convergence criterion is 10**(-8)
 A restricted Hartree-Fock SCF calculation will be
 performed using Pulay DIIS extrapolation
 SCF converges when DIIS error is below 1.0E-08
Finding J and K together
 Job number = 22, Threshold = 1.00E-11
Integral type ranges set in mkLRange.C for JobNum: 22  <1-6|1-6>
 MakeJK  time:  CPU       0.15 s  wall       0.15 s
Fock build time:  0.15 s (CPU) 0.15 s (wall)
DIIS Errors:  Max 1.10E+00 RMS 2.11E-01

Current DIIS subspace size = 1
REM_GRID_RESTART_DIIS = 0

 ---------------------------------------
  Cycle       Energy         DIIS Error
 ---------------------------------------
    1    -152.5529854017      2.11E-01  00000
Finding J and K together
 Job number = 22, Threshold = 1.00E-11
Integral type ranges set in mkLRange.C for JobNum: 22  <1-6|1-6>
 MakeJK  time:  CPU       0.19 s  wall       0.19 s
Fock build time:  0.19 s (CPU) 0.19 s (wall)
DIIS Errors:  Max 5.81E-02 RMS 1.30E-02

Current DIIS subspace size = 2
REM_GRID_RESTART_DIIS = 0

    2    -152.9790093347      1.30E-02  00000
Finding J and K together
 Job number = 22, Threshold = 1.00E-11
Integral type ranges set in mkLRange.C for JobNum: 22  <1-6|1-6>
 MakeJK  time:  CPU       0.19 s  wall       0.21 s
Fock build time:  0.19 s (CPU) 0.21 s (wall)
DIIS Errors:  Max 1.96E-02 RMS 3.72E-03

Current DIIS subspace size = 3
REM_GRID_RESTART_DIIS = 0

    3    -153.0039553233      3.72E-03  00000
Finding J and K together
 Job number = 22, Threshold = 1.00E-11
Integral type ranges set in mkLRange.C for JobNum: 22  <1-6|1-6>
 MakeJK  time:  CPU       0.18 s  wall       0.19 s
Fock build time:  0.18 s (CPU) 0.19 s (wall)
DIIS Errors:  Max 1.21E-02 RMS 1.58E-03

Current DIIS subspace size = 4
REM_GRID_RESTART_DIIS = 0

    4    -153.0058694653      1.58E-03  00000
Finding J and K together
 Job number = 22, Threshold = 1.00E-11
Integral type ranges set in mkLRange.C for JobNum: 22  <1-6|1-6>
 MakeJK  time:  CPU       0.17 s  wall       0.17 s
Fock build time:  0.17 s (CPU) 0.17 s (wall)
DIIS Errors:  Max 1.21E-03 RMS 1.05E-04

Current DIIS subspace size = 5
REM_GRID_RESTART_DIIS = 0

    5    -153.0061343194      1.05E-04  00000
Finding J and K together
 Job number = 22, Threshold = 1.00E-11
Integral type ranges set in mkLRange.C for JobNum: 22  <1-6|1-6>
 MakeJK  time:  CPU       0.19 s  wall       0.19 s
Fock build time:  0.19 s (CPU) 0.19 s (wall)
DIIS Errors:  Max 2.45E-04 RMS 2.19E-05

Current DIIS subspace size = 6
REM_GRID_RESTART_DIIS = 0

    6    -153.0061381606      2.19E-05  00000
Finding J and K together
 Job number = 22, Threshold = 1.00E-11
Integral type ranges set in mkLRange.C for JobNum: 22  <1-6|1-6>
 MakeJK  time:  CPU       0.14 s  wall       0.14 s
Fock build time:  0.14 s (CPU) 0.14 s (wall)
DIIS Errors:  Max 2.46E-05 RMS 5.24E-06

Current DIIS subspace size = 7
REM_GRID_RESTART_DIIS = 0

    7    -153.0061383267      5.24E-06  00000
Finding J and K together
 Job number = 22, Threshold = 1.00E-11
Integral type ranges set in mkLRange.C for JobNum: 22  <1-6|1-6>
 MakeJK  time:  CPU       0.19 s  wall       0.22 s
Fock build time:  0.19 s (CPU) 0.22 s (wall)
DIIS Errors:  Max 9.56E-06 RMS 1.74E-06

Current DIIS subspace size = 8
REM_GRID_RESTART_DIIS = 0

    8    -153.0061383313      1.74E-06  00000
Finding J and K together
 Job number = 22, Threshold = 1.00E-11
Integral type ranges set in mkLRange.C for JobNum: 22  <1-6|1-6>
 MakeJK  time:  CPU       0.18 s  wall       0.19 s
Fock build time:  0.18 s (CPU) 0.19 s (wall)
DIIS Errors:  Max 3.54E-06 RMS 6.43E-07

Current DIIS subspace size = 9
REM_GRID_RESTART_DIIS = 0

    9    -153.0061383320      6.43E-07  00000
Finding J and K together
 Job number = 22, Threshold = 1.00E-11
Integral type ranges set in mkLRange.C for JobNum: 22  <1-6|1-6>
 MakeJK  time:  CPU       0.19 s  wall       0.19 s
Fock build time:  0.19 s (CPU) 0.19 s (wall)
DIIS Errors:  Max 1.10E-06 RMS 1.97E-07

Current DIIS subspace size = 10
REM_GRID_RESTART_DIIS = 0

   10    -153.0061383321      1.97E-07  00000
Finding J and K together
 Job number = 22, Threshold = 1.00E-11
Integral type ranges set in mkLRange.C for JobNum: 22  <1-6|1-6>
 MakeJK  time:  CPU       0.16 s  wall       0.16 s
Fock build time:  0.16 s (CPU) 0.17 s (wall)
DIIS Errors:  Max 1.00E-07 RMS 1.83E-08

Current DIIS subspace size = 11
REM_GRID_RESTART_DIIS = 0

   11    -153.0061383321      1.83E-08  00000
Finding J and K together
 Job number = 22, Threshold = 1.00E-11
Integral type ranges set in mkLRange.C for JobNum: 22  <1-6|1-6>
 MakeJK  time:  CPU       0.19 s  wall       0.19 s
Fock build time:  0.19 s (CPU) 0.19 s (wall)
DIIS Errors:  Max 2.87E-08 RMS 5.44E-09

Current DIIS subspace size = 12
REM_GRID_RESTART_DIIS = 0

   12    -153.0061383321      5.44E-09  00000 Convergence criterion met
 ---------------------------------------
 SCF time:  CPU 2.15 s  wall 2.22 s
 SCF   energy in the final basis set = -153.00613833
 Total energy in the final basis set = -153.00613833
drvman_main.C: 73: calling DrvMan  Calculating analytic gradient of the SCF energy
drvman.C : 218: Calculating analytic gradient of the SCF energy
drvman.C: 244: calling SCF_Grad for normal SCF gradient
 Job number = 111, Threshold = 1.00E-11
Integral type ranges set in mkLRange.C for JobNum: 11  <1-6|7-7>
Finding J and K together
 ML is being used
 Job number = 122, Threshold = 1.00E-11
Integral type ranges set in mkLRange.C for JobNum: 22  <1-6|1-6>
 MakeJK  time:  CPU       0.49 s  wall       0.50 s
 Gradient of SCF Energy
            1           2           3           4           5           6
    1   0.0029650  -0.1070882   0.0110999   0.0297308   0.0701101   0.0090468
    2   0.0196185  -0.0305999   0.0142961  -0.0013868   0.0062052  -0.0173363
    3   0.0294429  -0.0104512  -0.0096820  -0.0102857   0.0056253   0.0145336
            7           8           9          10
    1  -0.0028912  -0.0236460   0.0139292  -0.0032564
    2  -0.0179713   0.0114572   0.0015485   0.0141688
    3  -0.0066925  -0.0065793  -0.0019145  -0.0039965
 Max gradient component =       1.071E-01
 RMS gradient           =       2.727E-02
drvman.C: 248: out of SCF_Grad for normal SCF gradient
 Gradient time:  CPU 0.51 s  wall 0.52 s
 ------------------------------------------------------------------------------
                     drvman        : Timing summary (seconds)
 ------------------------------------------------------------------------------
     job step          cpu (% of tot)      sys (% of tot)     wall (% of tot)
 ------------------------------------------------------------------------------
 ------------------------------------------------------------------------------
   Grand Totals     0.5120E+00          0.3000E-05          0.5194E+00
 ------------------------------------------------------------------------------
drvman_main.C: 77: out of DrvMan  Time for this dynamics step: 2.7 s (CPU) 2.8 s (wall)

TIME STEP #7 (t = 120.000 a.u. = 2.90266 fs)
--------------------------------------
 Instantaneous Temperature = 258.0 K
 ----------------------------------------------------------------
             Standard Nuclear Orientation (Angstroms)
    I     Atom           X                Y                Z
 ----------------------------------------------------------------
    1      C       3.8259787818     2.0200878443     1.0090422372
    2      C       2.7466669537     1.2117770005     0.8783468676
    3      H       3.8183411671     3.1105252646     0.8729509263
    4      H       4.8753317562     1.6479642909     0.9555191745
    5      C       1.4181641471     1.7157887850     0.6874406391
    6      C       0.3542633535     0.9222609996     0.5657064639
    7      H       0.3994752761    -0.1750788412     0.5096048511
    8      H      -0.6483326958     1.3513804733     0.3724316646
    9      H       2.9791761885     0.1522838978     0.8619230027
   10      H       1.2951501380     2.8022108346     0.6249926031
 ----------------------------------------------------------------
 Nuclear Repulsion Energy =   103.6562660016 hartrees
 There are       15 alpha and       15 beta electrons

[...]
 Total energy in the final basis set = -153.00765846
drvman_main.C: 73: calling DrvMan  Calculating analytic gradient of the SCF energy
drvman.C : 218: Calculating analytic gradient of the SCF energy
drvman.C: 244: calling SCF_Grad for normal SCF gradient
 Job number = 111, Threshold = 1.00E-11
Integral type ranges set in mkLRange.C for JobNum: 11  <1-6|7-7>
Finding J and K together
 ML is being used
 Job number = 122, Threshold = 1.00E-11
Integral type ranges set in mkLRange.C for JobNum: 22  <1-6|1-6>
 MakeJK  time:  CPU       0.49 s  wall       0.52 s
 Gradient of SCF Energy
            1           2           3           4           5           6
    1   0.0260597  -0.0279927  -0.0039778  -0.0033904   0.0318243   0.0305270
    2   0.0384093  -0.0346594  -0.0133767  -0.0073509   0.0262485   0.0192066
    3   0.0034762  -0.0031489   0.0101518  -0.0038823   0.0010583   0.0022603
            7           8           9          10
    1  -0.0150203  -0.0175983  -0.0082107  -0.0122208
    2  -0.0084776  -0.0154308   0.0018502  -0.0064191
    3  -0.0125353   0.0095584   0.0087034  -0.0156418
 Max gradient component =       3.841E-02
 RMS gradient           =       1.753E-02
drvman.C: 248: out of SCF_Grad for normal SCF gradient
 Gradient time:  CPU 0.51 s  wall 0.55 s
 ------------------------------------------------------------------------------
                     drvman        : Timing summary (seconds)
 ------------------------------------------------------------------------------
     job step          cpu (% of tot)      sys (% of tot)     wall (% of tot)
 ------------------------------------------------------------------------------
 ------------------------------------------------------------------------------
   Grand Totals     0.5120E+00          0.0000E+00          0.5503E+00
 ------------------------------------------------------------------------------
drvman_main.C: 77: out of DrvMan  Time for this dynamics step: 2.0 s (CPU) 2.0 s (wall)

TIME STEP #399 (t = 7960.000 a.u. = 192.54319 fs)
--------------------------------------
 Instantaneous Temperature = 289.0 K
 ----------------------------------------------------------------
             Standard Nuclear Orientation (Angstroms)
    I     Atom           X                Y                Z
 ----------------------------------------------------------------
    1      C       3.8042995663     2.0731724210     1.1563782876
    2      C       2.7251319182     1.6659084996     0.4836460659
    3      H       3.8015862289     2.0083758935     2.2541806445
    4      H       4.7614005830     2.1625531649     0.6449832163
    5      C       1.4058982078     1.4211885395     1.0409789418
    6      C       0.4392208570     0.7613453599     0.4163830529
    7      H       0.3993155162     0.3829756039    -0.6132859825
    8      H      -0.4737389144     0.4484100025     0.9740115032
    9      H       2.7366444147     1.5940164847    -0.5924413855
   10      H       1.1429544153     1.6773724951     2.0437496031
 ----------------------------------------------------------------
 Nuclear Repulsion Energy =   103.7624849362 hartrees
 There are       15 alpha and       15 beta electrons

                       Distance Matrix (Angstroms)
             C (  1)   C (  2)   H (  3)   H (  4)   C (  5)   C (  6)
   C (  2)  1.335303
   H (  3)  1.099716  2.100198
   H (  4)  1.088832  2.102160  1.880035
   C (  5)  2.488118  1.452889  2.748812  3.459166
   C (  6)  3.686765  2.459298  4.029651  4.549382  1.326642
   H (  7)  4.193136  2.873778  4.737060  4.876261  2.197200  1.097713
   H (  8)  4.579817  3.457678  4.727656  5.518445  2.117503  1.114618
   H (  9)  2.104245  1.078548  3.067418  2.440101  2.113958  2.643714
   H ( 10)  2.833168  2.222013  2.687409  3.909616  1.067857  1.995662
             H (  7)   H (  8)   H (  9)
   H (  8)  1.812738
   H (  9)  2.632520  3.751366
   H ( 10)  3.047671  2.295296  3.081607

 Applying Cartesian multipole field
    Component          Value
    ---------          -----
     (2,0,0)        1.00000E-11
     (0,2,0)        2.00000E-11
     (0,0,2)       -3.00000E-10
 Nucleus-field energy     =    -0.0000000184 hartrees
 ENuRep (before)= 103.7624849362
 ENucField = -0.0000000184
 ENuRep (after) = 103.7624849178
 Job number = 2, Threshold = 1.00E-11
Integral type ranges set in mkLRange.C for JobNum: 2  <1-6|1-6>
Symmetry turned off temporarily
Symmetry turned back on
 Job number = 11, Threshold = 1.00E-11
Integral type ranges set in mkLRange.C for JobNum: 11  <1-6|7-7>
 Smallest overlap matrix eigenvalue = 1.82E-01
 Multipole matrices computed through 2nd order
 Extrapolating the Fock matrix using 12 points and a 6th-order polynomial
 Alpha Fock matrix extrapolation
 Skip SCF guess (diagonalize extrapolated Fock matrix instead)
 SCF convergence criterion is 10**(-8)
 A restricted Hartree-Fock SCF calculation will be
 performed using Pulay DIIS extrapolation
 SCF converges when DIIS error is below 1.0E-08
Extrapolated Fock matrix used in lieu of Fock build
Fock build time:  0.00 s (CPU) 0.00 s (wall)
DIIS Errors:  Max 1.36E-02 RMS 2.40E-03

Current DIIS subspace size = 1
REM_GRID_RESTART_DIIS = 0

 ---------------------------------------
  Cycle       Energy         DIIS Error
 ---------------------------------------
    1    -307.9756744342      2.40E-03  00000
Finding J and K together
 Job number = 22, Threshold = 1.00E-11
Integral type ranges set in mkLRange.C for JobNum: 22  <1-6|1-6>
 MakeJK  time:  CPU       0.19 s  wall       0.20 s
Fock build time:  0.19 s (CPU) 0.20 s (wall)
DIIS Errors:  Max 1.78E-03 RMS 1.83E-04

Current DIIS subspace size = 2
REM_GRID_RESTART_DIIS = 0

    2    -153.0056747506      1.83E-04  00000
Finding J and K together
 Job number = 22, Threshold = 1.00E-11
Integral type ranges set in mkLRange.C for JobNum: 22  <1-6|1-6>
 MakeJK  time:  CPU       0.18 s  wall       0.19 s
Fock build time:  0.18 s (CPU) 0.19 s (wall)
DIIS Errors:  Max 1.03E-04 RMS 1.31E-05

Current DIIS subspace size = 3
REM_GRID_RESTART_DIIS = 0

    3    -153.0056753308      1.31E-05  00000
Finding J and K together
 Job number = 22, Threshold = 1.00E-11
Integral type ranges set in mkLRange.C for JobNum: 22  <1-6|1-6>
 MakeJK  time:  CPU       0.16 s  wall       0.16 s
Fock build time:  0.16 s (CPU) 0.16 s (wall)
DIIS Errors:  Max 1.40E-05 RMS 2.01E-06

Current DIIS subspace size = 4
REM_GRID_RESTART_DIIS = 0

    4    -153.0056753376      2.01E-06  00000
Finding J and K together
 Job number = 22, Threshold = 1.00E-11
Integral type ranges set in mkLRange.C for JobNum: 22  <1-6|1-6>
 MakeJK  time:  CPU       0.18 s  wall       0.18 s
Fock build time:  0.18 s (CPU) 0.18 s (wall)
DIIS Errors:  Max 4.19E-06 RMS 7.18E-07

Current DIIS subspace size = 5
REM_GRID_RESTART_DIIS = 0

    5    -153.0056753380      7.18E-07  00000
Finding J and K together
 Job number = 22, Threshold = 1.00E-11
Integral type ranges set in mkLRange.C for JobNum: 22  <1-6|1-6>
 MakeJK  time:  CPU       0.19 s  wall       0.19 s
Fock build time:  0.19 s (CPU) 0.19 s (wall)
DIIS Errors:  Max 7.75E-07 RMS 1.29E-07

Current DIIS subspace size = 6
REM_GRID_RESTART_DIIS = 0

    6    -153.0056753381      1.29E-07  00000
Finding J and K together
 Job number = 22, Threshold = 1.00E-11
Integral type ranges set in mkLRange.C for JobNum: 22  <1-6|1-6>
 MakeJK  time:  CPU       0.16 s  wall       0.16 s
Fock build time:  0.16 s (CPU) 0.16 s (wall)
DIIS Errors:  Max 4.22E-07 RMS 4.73E-08

Current DIIS subspace size = 7
REM_GRID_RESTART_DIIS = 0

    7    -153.0056753381      4.73E-08  00000
Finding J and K together
 Job number = 22, Threshold = 1.00E-11
Integral type ranges set in mkLRange.C for JobNum: 22  <1-6|1-6>
 MakeJK  time:  CPU       0.13 s  wall       0.13 s
Fock build time:  0.13 s (CPU) 0.13 s (wall)
DIIS Errors:  Max 1.19E-07 RMS 1.79E-08

Current DIIS subspace size = 8
REM_GRID_RESTART_DIIS = 0

    8    -153.0056753381      1.79E-08  00000
Finding J and K together
 Job number = 22, Threshold = 1.00E-11
Integral type ranges set in mkLRange.C for JobNum: 22  <1-6|1-6>
 MakeJK  time:  CPU       0.18 s  wall       0.17 s
Fock build time:  0.18 s (CPU) 0.17 s (wall)
DIIS Errors:  Max 1.51E-08 RMS 2.92E-09

Current DIIS subspace size = 9
REM_GRID_RESTART_DIIS = 0

    9    -153.0056753381      2.92E-09  00000 Convergence criterion met
 ---------------------------------------
 SCF time:  CPU 1.39 s  wall 1.41 s
 SCF   energy in the final basis set = -153.00567534
 Total energy in the final basis set = -153.00567534
drvman_main.C: 73: calling DrvMan  Calculating analytic gradient of the SCF energy
drvman.C : 218: Calculating analytic gradient of the SCF energy
drvman.C: 244: calling SCF_Grad for normal SCF gradient
 Job number = 111, Threshold = 1.00E-11
Integral type ranges set in mkLRange.C for JobNum: 11  <1-6|7-7>
Finding J and K together
 ML is being used
 Job number = 122, Threshold = 1.00E-11
Integral type ranges set in mkLRange.C for JobNum: 22  <1-6|1-6>
 MakeJK  time:  CPU       0.44 s  wall       0.46 s
 Gradient of SCF Energy
            1           2           3           4           5           6
    1   0.0193518  -0.0349167  -0.0031950   0.0048544   0.0445035   0.0251734
    2   0.0403524  -0.0377359  -0.0142895  -0.0068941   0.0346000   0.0156517
    3   0.0028312  -0.0022373   0.0147944  -0.0067637   0.0100959  -0.0078161
            7           8           9          10
    1  -0.0158216  -0.0194436  -0.0072443  -0.0132618
    2  -0.0087899  -0.0170392   0.0018563  -0.0077119
    3  -0.0103173   0.0113526   0.0061829  -0.0181226
 Max gradient component =       4.450E-02
 RMS gradient           =       1.942E-02
drvman.C: 248: out of SCF_Grad for normal SCF gradient
 Gradient time:  CPU 0.46 s  wall 0.48 s
 ------------------------------------------------------------------------------
                     drvman        : Timing summary (seconds)
 ------------------------------------------------------------------------------
     job step          cpu (% of tot)      sys (% of tot)     wall (% of tot)
 ------------------------------------------------------------------------------
 ------------------------------------------------------------------------------
   Grand Totals     0.4600E+00          0.1000E-05          0.4785E+00
 ------------------------------------------------------------------------------
drvman_main.C: 77: out of DrvMan  Time for this dynamics step: 1.9 s (CPU) 1.9 s (wall)

TIME STEP #400 (t = 7980.000 a.u. = 193.02697 fs)
--------------------------------------
 Instantaneous Temperature = 247.6 K
 ----------------------------------------------------------------
             Standard Nuclear Orientation (Angstroms)
    I     Atom           X                Y                Z
 ----------------------------------------------------------------
    1      C       3.8035101696     2.0752806275     1.1562492160
    2      C       2.7230997280     1.6657857546     0.4829539171
    3      H       3.8052428414     2.0001920927     2.2577083315
    4      H       4.7738540830     2.1596244308     0.6494114369
    5      C       1.4096938936     1.4221325451     1.0439060465
    6      C       0.4372715117     0.7611844110     0.4130211928
    7      H       0.3906422894     0.3814976356    -0.6120854554
    8      H      -0.4673981627     0.4382598542     0.9800816222
    9      H       2.7382269934     1.5962677626    -0.5966038147
   10      H       1.1392062342     1.6648977598     2.0476400934
 ----------------------------------------------------------------
 Nuclear Repulsion Energy =   103.6260720321 hartrees
 There are       15 alpha and       15 beta electrons

                       Distance Matrix (Angstroms)
             C (  1)   C (  2)   H (  3)   H (  4)   C (  5)   C (  6)
   C (  2)  1.337273
   H (  3)  1.104017  2.105378
   H (  4)  1.097983  2.115934  1.884209
   C (  5)  2.483864  1.448816  2.747021  3.466568
   C (  6)  3.689282  2.459310  4.035002  4.562616  1.334344
   H (  7)  4.200426  2.879039  4.745038  4.895473  2.205379  1.094157
   H (  8)  4.577284  3.454451  4.725190  5.526587  2.120272  1.115466
   H (  9)  2.106365  1.081899  3.073886  2.452285  2.118159  2.647849
   H ( 10)  2.839279  2.226424  2.695237  3.925616  1.067511  1.995342
             H (  7)   H (  8)   H (  9)
   H (  8)  1.809545
   H (  9)  2.643305  3.755390
   H ( 10)  3.046572  2.285935  3.090890

 Applying Cartesian multipole field
    Component          Value
    ---------          -----
     (2,0,0)        1.00000E-11
     (0,2,0)        2.00000E-11
     (0,0,2)       -3.00000E-10
 Nucleus-field energy     =    -0.0000000184 hartrees
 ENuRep (before)= 103.6260720321
 ENucField = -0.0000000184
 ENuRep (after) = 103.6260720136
 Job number = 2, Threshold = 1.00E-11
Integral type ranges set in mkLRange.C for JobNum: 2  <1-6|1-6>
Symmetry turned off temporarily
Symmetry turned back on
 Job number = 11, Threshold = 1.00E-11
Integral type ranges set in mkLRange.C for JobNum: 11  <1-6|7-7>
 Smallest overlap matrix eigenvalue = 1.84E-01
 Multipole matrices computed through 2nd order
 Extrapolating the Fock matrix using 12 points and a 6th-order polynomial
 Alpha Fock matrix extrapolation
 Skip SCF guess (diagonalize extrapolated Fock matrix instead)
 SCF convergence criterion is 10**(-8)
 A restricted Hartree-Fock SCF calculation will be
 performed using Pulay DIIS extrapolation
 SCF converges when DIIS error is below 1.0E-08
Extrapolated Fock matrix used in lieu of Fock build
Fock build time:  0.00 s (CPU) 0.00 s (wall)
DIIS Errors:  Max 1.27E-02 RMS 2.23E-03

Current DIIS subspace size = 1
REM_GRID_RESTART_DIIS = 0

 ---------------------------------------
  Cycle       Energy         DIIS Error
 ---------------------------------------
    1    -307.8814315084      2.23E-03  00000
Finding J and K together
 Job number = 22, Threshold = 1.00E-11
Integral type ranges set in mkLRange.C for JobNum: 22  <1-6|1-6>
 MakeJK  time:  CPU       0.13 s  wall       0.13 s
Fock build time:  0.13 s (CPU) 0.13 s (wall)
DIIS Errors:  Max 1.21E-03 RMS 1.30E-04

Current DIIS subspace size = 2
REM_GRID_RESTART_DIIS = 0

    2    -153.0037767981      1.30E-04  00000
Finding J and K together
 Job number = 22, Threshold = 1.00E-11
Integral type ranges set in mkLRange.C for JobNum: 22  <1-6|1-6>
 MakeJK  time:  CPU       0.12 s  wall       0.12 s
Fock build time:  0.12 s (CPU) 0.12 s (wall)
DIIS Errors:  Max 6.24E-05 RMS 9.17E-06

Current DIIS subspace size = 3
REM_GRID_RESTART_DIIS = 0

    3    -153.0037771168      9.17E-06  00000
Finding J and K together
 Job number = 22, Threshold = 1.00E-11
Integral type ranges set in mkLRange.C for JobNum: 22  <1-6|1-6>
 MakeJK  time:  CPU       0.16 s  wall       0.15 s
Fock build time:  0.16 s (CPU) 0.15 s (wall)
DIIS Errors:  Max 8.09E-06 RMS 1.57E-06

Current DIIS subspace size = 4
REM_GRID_RESTART_DIIS = 0

    4    -153.0037771220      1.57E-06  00000
Finding J and K together
 Job number = 22, Threshold = 1.00E-11
Integral type ranges set in mkLRange.C for JobNum: 22  <1-6|1-6>
 MakeJK  time:  CPU       0.14 s  wall       0.15 s
Fock build time:  0.14 s (CPU) 0.15 s (wall)
DIIS Errors:  Max 3.42E-06 RMS 7.22E-07

Current DIIS subspace size = 5
REM_GRID_RESTART_DIIS = 0

    5    -153.0037771223      7.22E-07  00000
Finding J and K together
 Job number = 22, Threshold = 1.00E-11
Integral type ranges set in mkLRange.C for JobNum: 22  <1-6|1-6>
 MakeJK  time:  CPU       0.13 s  wall       0.13 s
Fock build time:  0.13 s (CPU) 0.13 s (wall)
DIIS Errors:  Max 5.75E-07 RMS 9.49E-08

Current DIIS subspace size = 6
REM_GRID_RESTART_DIIS = 0

    6    -153.0037771224      9.49E-08  00000
Finding J and K together
 Job number = 22, Threshold = 1.00E-11
Integral type ranges set in mkLRange.C for JobNum: 22  <1-6|1-6>
 MakeJK  time:  CPU       0.13 s  wall       0.13 s
Fock build time:  0.13 s (CPU) 0.13 s (wall)
DIIS Errors:  Max 1.87E-07 RMS 2.56E-08

Current DIIS subspace size = 7
REM_GRID_RESTART_DIIS = 0

    7    -153.0037771224      2.56E-08  00000
Finding J and K together
 Job number = 22, Threshold = 1.00E-11
Integral type ranges set in mkLRange.C for JobNum: 22  <1-6|1-6>
 MakeJK  time:  CPU       0.15 s  wall       0.15 s
Fock build time:  0.15 s (CPU) 0.15 s (wall)
DIIS Errors:  Max 3.23E-08 RMS 4.91E-09

Current DIIS subspace size = 8
REM_GRID_RESTART_DIIS = 0

    8    -153.0037771224      4.91E-09  00000 Convergence criterion met
 ---------------------------------------
 SCF time:  CPU 0.98 s  wall 0.99 s
 SCF   energy in the final basis set = -153.00377712
 Total energy in the final basis set = -153.00377712
drvman_main.C: 73: calling DrvMan  Calculating analytic gradient of the SCF energy
drvman.C : 218: Calculating analytic gradient of the SCF energy
drvman.C: 244: calling SCF_Grad for normal SCF gradient
 Job number = 111, Threshold = 1.00E-11
Integral type ranges set in mkLRange.C for JobNum: 11  <1-6|7-7>
Finding J and K together
 ML is being used
 Job number = 122, Threshold = 1.00E-11
Integral type ranges set in mkLRange.C for JobNum: 22  <1-6|1-6>
 MakeJK  time:  CPU       0.41 s  wall       0.41 s
 Gradient of SCF Energy
            1           2           3           4           5           6
    1   0.0123835  -0.0406795  -0.0022412   0.0124929   0.0561186   0.0181220
    2   0.0418110  -0.0400943  -0.0150520  -0.0065098   0.0416408   0.0111848
    3   0.0026737  -0.0002814   0.0179376  -0.0090601   0.0169369  -0.0176845
            7           8           9          10
    1  -0.0162993  -0.0192456  -0.0062235  -0.0144278
    2  -0.0085735  -0.0178199   0.0017920  -0.0083790
    3  -0.0070040   0.0121222   0.0029673  -0.0186078
 Max gradient component =       5.612E-02
 RMS gradient           =       2.148E-02
drvman.C: 248: out of SCF_Grad for normal SCF gradient
 Gradient time:  CPU 0.43 s  wall 0.43 s
 ------------------------------------------------------------------------------
                     drvman        : Timing summary (seconds)
 ------------------------------------------------------------------------------
     job step          cpu (% of tot)      sys (% of tot)     wall (% of tot)
 ------------------------------------------------------------------------------
 ------------------------------------------------------------------------------
   Grand Totals     0.4280E+00          0.1000E-05          0.4329E+00
 ------------------------------------------------------------------------------
drvman_main.C: 77: out of DrvMan  Time for this dynamics step: 1.4 s (CPU) 1.5 s (wall)

=============== TIME STEPS COMPLETED ==================

Step-to-Step energy fluctuations, |E(n) - E(n-1)|
Mean: 1.360e-07   Max: 3.154e-05   RMS: 1.302e-05
Overall energy fluctuations, |E(n) - E(0)|
Mean: 4.580e-05   Max: 1.095e-04   RMS: 2.367e-05   RMS(dE)/RMS(dV): 6.873e-03
Kinetic energy fluctuations, |T(n) - V(0)|
Mean: -8.702e-03   Max: 1.617e-02   RMS: 3.428e-03
Potential energy fluctuations, |V(n) - V(0)|
Mean: 8.747e-03   Max: 1.627e-02   RMS: 3.444e-03


 JobOver = TRUE
Archival summary:
1\1\qciep03\JobtypUnspecified\HF\STO-3G\46\jcartus\MonJun1812:51:562018MonJun1812:51:562018\0\\#,JobtypUnspecified,HF,STO-3G,\\0,1\C\H,1,1.06751\C,1,1.33434,2,111.873\H,3,1.09416,1,130.234,2,179.291,0\H,3,1.11547,1,119.61,2,-6.44616,0\C,1,1.44882,2,123.745,3,-174.303,0\H,6,1.0819,1,112.843,2,-165.156,0\C,6,1.33727,1,126.084,2,7.96971,0\H,8,1.09798,6,120.339,1,175.469,0\H,8,1.10402,6,118.866,1,15.9119,0\\HF=-153.003777\\@

 Total job time:  739.13s(wall), 717.47s(cpu) 
 Mon Jun 18 12:51:56 2018

        *************************************************************
        *                                                           *
        *  Thank you very much for using Q-Chem.  Have a nice day.  *
        *                                                           *
        *************************************************************


*** MISSION COMPLETED -- STARFLEET OUT ***

0 sent ACK to 0 
now end server 0 ... 
