Process 0 of 1 is on qciep03 - thread support 0
initial socket setup ...start
initial socket setup ...done 
now start server 0 ... 
qciep03.tugraz.at 127.0.1
Q-Chem Developer Version! Running on 127.0.1.*
                  Welcome to Q-Chem
     A Quantum Leap Into The Future Of Chemistry


 Q-Chem 5.0, Q-Chem, Inc., Pleasanton, CA (2017)

 Yihan Shao,  Zhengting Gan,  E. Epifanovsky,  A. T. B. Gilbert,  M. Wormit,  
 J. Kussmann,  A. W. Lange,  A. Behn,  Jia Deng,  Xintian Feng,  D. Ghosh,  
 M. Goldey,  P. R. Horn,  L. D. Jacobson,  I. Kaliman,  T. Kus,  A. Landau,  
 Jie Liu,  E. I. Proynov,  R. M. Richard,  R. P. Steele,  E. J. Sundstrom,  
 H. L. Woodcock III,  P. M. Zimmerman,  D. Zuev,  B. Albrecht,  E. Alguire,  
 S. A. Baeppler,  D. Barton,  Z. Benda,  Y. A. Bernard,  E. J. Berquist,  
 K. B. Bravaya,  H. Burton,  D. Casanova,  Chun-Min Chang,  Yunqing Chen,  
 A. Chien,  K. D. Closser,  M. P. Coons,  S. Dasgupta,  A. L. Dempwolff,  
 M. Diedenhofen,  Hainam Do,  R. G. Edgar,  Po-Tung Fang,  S. Fatehi,  
 Qingguo Feng,  J. Fosso-Tande,  Qinghui Ge,  A. Ghysels,  G. Gidofalvi,  
 J. Gomes,  J. Gonthier,  A. Gunina,  M. W. D. Hanson-Heine,  
 P. H. P. Harbach,  A. W. Hauser,  J. E. Herr,  E. G. Hohenstein,  
 Z. C. Holden,  Kerwin Hui,  T.-C. Jagau,  Hyunjun Ji,  B. Kaduk,  
 K. Khistyaev,  Jaehoon Kim,  P. Klunzinger,  K. Koh,  D. Kosenkov,  
 L. Koulias,  T. Kowalczyk,  C. M. Krauter,  A. Kunitsa,  Ka Un Lao,  
 A. Laurent,  K. V. Lawler,  Joonho Lee,  D. Lefrancois,  S. Lehtola,  
 D. S. Levine,  Yi-Pei Li,  You-Sheng Lin,  Fenglai Liu,  E. Livshits,  
 A. Luenser,  P. Manohar,  E. Mansoor,  S. F. Manzer,  Shan-Ping Mao,  
 Yuezhi Mao,  N. Mardirossian,  A. V. Marenich,  T. Markovich,  
 L. A. Martinez-Martinez,  S. A. Maurer,  N. J. Mayhall,  S. C. McKenzie,  
 J.-M. Mewes,  A. F. Morrison,  J. W. Mullinax,  K. Nanda,  
 T. S. Nguyen-Beck,  R. Olivares-Amaya,  J. A. Parkhill,  T. M. Perrine,  
 F. Plasser,  S. Prager,  A. Prociuk,  E. Ramos,  D. R. Rehn,  F. Rob,  
 M. Schneider,  N. Sergueev,  S. M. Sharada,  S. Sharma,  D. W. Small,  
 T. Stauch,  T. Stein,  Yu-Chuan Su,  A. J. W. Thom,  A. Tkatchenko,  
 T. Tsuchimochi,  L. Vogt,  O. Vydrov,  M. A. Watson,  J. Wenzel,  
 M. de Wergifosse,  T. A. Wesolowski,  A. White,  J. Witte,  A. Yamada,  
 Jun Yang,  K. Yao,  S. Yeganeh,  S. R. Yost,  Zhi-Qiang You,  A. Zech,  
 Igor Ying Zhang,  Xing Zhang,  Yan Zhao,  Ying Zhu,  B. R. Brooks,  
 G. K. L. Chan,  C. J. Cramer,  M. S. Gordon,  W. J. Hehre,  A. Klamt,  
 M. W. Schmidt,  C. D. Sherrill,  D. G. Truhlar,  A. Aspuru-Guzik,  R. Baer,  
 A. T. Bell,  N. A. Besley,  Jeng-Da Chai,  R. A. DiStasio Jr.,  A. Dreuw,  
 B. D. Dunietz,  T. R. Furlani,  Chao-Ping Hsu,  Yousung Jung,  Jing Kong,  
 D. S. Lambrecht,  WanZhen Liang,  C. Ochsenfeld,  V. A. Rassolov,  
 L. V. Slipchenko,  J. E. Subotnik,  T. Van Voorhis,  J. M. Herbert,  
 A. I. Krylov,  P. M. W. Gill,  M. Head-Gordon

 Contributors to earlier versions of Q-Chem not listed above: 
 R. D. Adamson,  B. Austin,  J. Baker,  G. J. O. Beran,  K. Brandhorst,  
 S. T. Brown,  E. F. C. Byrd,  A. K. Chakraborty,  C.-L. Cheng,  
 Siu Hung Chien,  D. M. Chipman,  D. L. Crittenden,  H. Dachsel,  
 R. J. Doerksen,  A. D. Dutoi,  L. Fusti-Molnar,  W. A. Goddard III,  
 A. Golubeva-Zadorozhnaya,  S. R. Gwaltney,  G. Hawkins,  A. Heyden,  
 S. Hirata,  G. Kedziora,  F. J. Keil,  C. Kelley,  Jihan Kim,  R. A. King,  
 R. Z. Khaliullin,  P. P. Korambath,  W. Kurlancheek,  A. M. Lee,  M. S. Lee,  
 S. V. Levchenko,  Ching Yeh Lin,  D. Liotard,  R. C. Lochan,  I. Lotan,  
 P. E. Maslen,  N. Nair,  D. P. O'Neill,  D. Neuhauser,  E. Neuscamman,  
 C. M. Oana,  R. Olson,  B. Peters,  R. Peverati,  P. A. Pieniazek,  
 Y. M. Rhee,  J. Ritchie,  M. A. Rohrdanz,  E. Rosta,  N. J. Russ,  
 H. F. Schaefer III,  N. E. Schultz,  N. Shenvi,  A. C. Simmonett,  A. Sodt,  
 D. Stuck,  K. S. Thanthiriwatte,  V. Vanovschi,  Tao Wang,  A. Warshel,  
 C. F. Williams,  Q. Wu,  X. Xu,  W. Zhang

 Please cite Q-Chem as follows:
 Y. Shao et al., Mol. Phys. 113, 184-215 (2015)
 DOI: 10.1080/00268976.2014.952696

 Q-Chem 5.0.2 for Intel X86 EM64T Linux

 Parts of Q-Chem use Armadillo 5.200.1 (Boston Tea Smuggler).
 http://arma.sourceforge.net/

 Q-Chem begins on Mon Jun 18 12:08:39 2018  


Host: 0

     Scratch files written to /home/jcartus/scratch/Butadien_9.mol.dir//
 Using version located at /usr/local/qchem/bin/qchem

 Parallel job on  1  processors
Symmetry disabled for AIMD jobs.

Total Memory Limit in MB = 2000
Mega-Array Size in MB = 192

Checking the input file for inconsistencies... 	...done.
Finally everything over in PARseQInput

--------------------------------------------------------------
User input:
--------------------------------------------------------------
$rem
AIMD_STEPS                    400
FOCK_EXTRAP_POINTS            12
MAX_SCF_CYCLES                100
BASIS                         sto-3g
AIMD_INIT_VELOC               thermal
FOCK_EXTRAP_ORDER             6
AIMD_TEMP                     400
AIMD_METHOD                   bomd
TIME_STEP                     20
METHOD                        hf
JOBTYPE                       aimd
$end

$molecule
0 1
C    4.06325    2.13007    0.82391
C    3.28176    1.06944    0.75373
H    3.87739    3.20011    0.77422
H    4.74859    1.86108    1.60312
C    1.70295    1.44567    0.85994
C    0.15642    1.08786    0.31911
H    0.31658    -0.10111    0.78057
H    -1.26550    1.27894    0.49264
H    2.57502    0.23225    0.62917
H    1.44288    2.48721    0.72350
$end


--------------------------------------------------------------
 ----------------------------------------------------------------
             Standard Nuclear Orientation (Angstroms)
    I     Atom           X                Y                Z
 ----------------------------------------------------------------
    1      C       4.0632500000     2.1300700000     0.8239100000
    2      C       3.2817600000     1.0694400000     0.7537300000
    3      H       3.8773900000     3.2001100000     0.7742200000
    4      H       4.7485900000     1.8610800000     1.6031200000
    5      C       1.7029500000     1.4456700000     0.8599400000
    6      C       0.1564200000     1.0878600000     0.3191100000
    7      H       0.3165800000    -0.1011100000     0.7805700000
    8      H      -1.2655000000     1.2789400000     0.4926400000
    9      H       2.5750200000     0.2322500000     0.6291700000
   10      H       1.4428800000     2.4872100000     0.7235000000
 ----------------------------------------------------------------
 Nuclear Repulsion Energy =    96.0312260541 hartrees
 There are       15 alpha and       15 beta electrons
 Requested basis set is STO-3G
 There are 14 shells and 26 basis functions

 Total QAlloc Memory Limit   2000 MB
 Mega-Array Size       188 MB
 MEM_STATIC part       192 MB

finished with qalloc call

                       Distance Matrix (Angstroms)
             C (  1)   C (  2)   H (  3)   H (  4)   C (  5)   C (  6)
   C (  2)  1.319313
   H (  3)  1.087198  2.212453
   H (  4)  1.072014  1.870761  1.799741
   C (  5)  2.457787  1.626490  2.795281  3.162405
   C (  6)  4.074843  3.155469  4.302830  4.830588  1.676985
   H (  7)  4.360915  3.187977  4.855663  4.916248  2.078665  1.285397
   H (  8)  5.406453  4.559565  5.497226  6.143397  2.995731  1.445158
   H (  9)  2.419602  1.102671  3.244287  2.885493  1.512002  2.584150
   H ( 10)  2.646501  2.322168  2.537250  3.477569  1.082154  1.943371
             H (  7)   H (  8)   H (  9)
   H (  8)  2.119061
   H (  9)  2.287925  3.982938
   H ( 10)  2.823333  2.974649  2.524972

 Job number = 2, Threshold = 1.00E-11
Integral type ranges set in mkLRange.C for JobNum: 2  <1-6|1-6>
Symmetry turned off temporarily
 Using the largest function pair in Schwarz integrals
Total number of integrals generated =            3252
Symmetry turned back on
 A cutoff of  1.0D-11 yielded    102 shell pairs
 There are       372 function pairs
 Job number = 11, Threshold = 1.00E-11
Integral type ranges set in mkLRange.C for JobNum: 11  <1-6|7-7>
Total number of integrals generated =            3720
 Smallest overlap matrix eigenvalue = 1.81E-01
 Multipole matrices computed through 2nd order

 Scale SEOQF with 1.000000e-01/1.000000e-01/1.000000e+00

 Standard Electronic Orientation quadrupole field applied
 Nucleus-field energy     =    -0.0000000052 hartrees
 ENuRep (before)= 96.0312260541
 ENucField = -0.0000000052
 ENuRep (after) = 96.0312260490
 Guess from superposition of atomic densities
 Warning:  Energy on first SCF cycle will be non-variational
 SAD guess density has 30.000000 electrons

 ==================================================
    GEN_SCFMAN: A general SCF calculation manager  
                                                   
    Authors:                                       
        -- Eric Jon Sundstrom 2008-2014            
        -- Paul Horn 2010-2015                     
        -- Yuezhi Mao 2012-                        
        -- Dmitri Zuev 2014                        
        -- Alec White 2015-                        
        -- David Stuck 2015                        
        -- Shaama M.S. 2015                        
        -- Shane Yost 2015-                         
        -- Joonho Lee 2016-                        
        -- David Small 2016-                       
        -- Daniel Levine 2016-                     
        -- Susi Lehtola 2017-                      
        -- Hugh Burton 2017-                       
 ==================================================
 Hartree-Fock
Finding J and K together
 Job number = 22, Threshold = 1.00E-11
Integral type ranges set in mkLRange.C for JobNum: 22  <1-6|1-6>
 MakeJK  time:  CPU       0.09 s  wall       0.09 s
 A restricted SCF calculation will be
 performed using DIIS
 SCF converges when DIIS error is below 1.0e-08
 ---------------------------------------
  Cycle       Energy         DIIS error
 ---------------------------------------
Finding J and K together
 Job number = 22, Threshold = 1.00E-11
Integral type ranges set in mkLRange.C for JobNum: 22  <1-6|1-6>
 MakeJK  time:  CPU       0.11 s  wall       0.12 s
    1    -151.7584880637      1.77e-01  
Finding J and K together
 Job number = 22, Threshold = 1.00E-11
Integral type ranges set in mkLRange.C for JobNum: 22  <1-6|1-6>
 MakeJK  time:  CPU       0.11 s  wall       0.11 s
    2    -152.4413781047      1.32e-02  
Finding J and K together
 Job number = 22, Threshold = 1.00E-11
Integral type ranges set in mkLRange.C for JobNum: 22  <1-6|1-6>
 MakeJK  time:  CPU       0.11 s  wall       0.12 s
    3    -152.4786105581      4.40e-03  
Finding J and K together
 Job number = 22, Threshold = 1.00E-11
Integral type ranges set in mkLRange.C for JobNum: 22  <1-6|1-6>
 MakeJK  time:  CPU       0.12 s  wall       0.12 s
    4    -152.4840518689      1.32e-03  
Finding J and K together
 Job number = 22, Threshold = 1.00E-11
Integral type ranges set in mkLRange.C for JobNum: 22  <1-6|1-6>
 MakeJK  time:  CPU       0.13 s  wall       0.13 s
    5    -152.4844970821      5.89e-04  
Finding J and K together
 Job number = 22, Threshold = 1.00E-11
Integral type ranges set in mkLRange.C for JobNum: 22  <1-6|1-6>
 MakeJK  time:  CPU       0.13 s  wall       0.13 s
    6    -152.4846089641      2.39e-04  
Finding J and K together
 Job number = 22, Threshold = 1.00E-11
Integral type ranges set in mkLRange.C for JobNum: 22  <1-6|1-6>
 MakeJK  time:  CPU       0.19 s  wall       0.19 s
    7    -152.4846453806      1.08e-04  
Finding J and K together
 Job number = 22, Threshold = 1.00E-11
Integral type ranges set in mkLRange.C for JobNum: 22  <1-6|1-6>
 MakeJK  time:  CPU       0.14 s  wall       0.14 s
    8    -152.4846517781      7.00e-05  
Finding J and K together
 Job number = 22, Threshold = 1.00E-11
Integral type ranges set in mkLRange.C for JobNum: 22  <1-6|1-6>
 MakeJK  time:  CPU       0.19 s  wall       0.20 s
    9    -152.4846543823      2.10e-05  
Finding J and K together
 Job number = 22, Threshold = 1.00E-11
Integral type ranges set in mkLRange.C for JobNum: 22  <1-6|1-6>
 MakeJK  time:  CPU       0.19 s  wall       0.20 s
   10    -152.4846546814      6.89e-06  
Finding J and K together
 Job number = 22, Threshold = 1.00E-11
Integral type ranges set in mkLRange.C for JobNum: 22  <1-6|1-6>
 MakeJK  time:  CPU       0.19 s  wall       0.19 s
   11    -152.4846547035      3.02e-06  
Finding J and K together
 Job number = 22, Threshold = 1.00E-11
Integral type ranges set in mkLRange.C for JobNum: 22  <1-6|1-6>
 MakeJK  time:  CPU       0.19 s  wall       0.19 s
   12    -152.4846547074      9.80e-07  
Finding J and K together
 Job number = 22, Threshold = 1.00E-11
Integral type ranges set in mkLRange.C for JobNum: 22  <1-6|1-6>
 MakeJK  time:  CPU       0.18 s  wall       0.19 s
   13    -152.4846547079      4.42e-07  
Finding J and K together
 Job number = 22, Threshold = 1.00E-11
Integral type ranges set in mkLRange.C for JobNum: 22  <1-6|1-6>
 MakeJK  time:  CPU       0.13 s  wall       0.13 s
   14    -152.4846547080      1.09e-07  
Finding J and K together
 Job number = 22, Threshold = 1.00E-11
Integral type ranges set in mkLRange.C for JobNum: 22  <1-6|1-6>
 MakeJK  time:  CPU       0.12 s  wall       0.12 s
   15    -152.4846547080      3.48e-08  
Finding J and K together
 Job number = 22, Threshold = 1.00E-11
Integral type ranges set in mkLRange.C for JobNum: 22  <1-6|1-6>
 MakeJK  time:  CPU       0.13 s  wall       0.13 s
   16    -152.4846547080      1.04e-08  
   17    -152.4846547080      1.92e-09  Convergence criterion met
 ---------------------------------------
 SCF time:   CPU 2.48s  wall 3.00s 
 Total energy in the final basis set =     -152.4846547080
Wall  1 = 3
Clock 1 = 2.4765930176
 ==================================================
                  Done GEN_SCFMAN                  
 ==================================================

Symmetry turned off temporarily

 --------------------------------------------------------------

                    Orbital Energies (a.u.)
 --------------------------------------------------------------

 Alpha MOs
 -- Occupied --
-11.028 -11.023 -11.020 -10.984  -1.016  -0.884  -0.772  -0.661
 -0.596  -0.544  -0.445  -0.404  -0.316  -0.281  -0.222
 -- Virtual --
  0.172   0.289   0.327   0.445   0.530   0.556   0.727   0.754
  0.773   0.829   1.151
 --------------------------------------------------------------

          Ground-State Mulliken Net Atomic Charges

     Atom                 Charge (a.u.)
  ----------------------------------------
      1 C                    -0.138704
      2 C                    -0.099489
      3 H                     0.075290
      4 H                     0.078406
      5 C                    -0.125896
      6 C                    -0.038518
      7 H                    -0.026835
      8 H                     0.050707
      9 H                     0.199488
     10 H                     0.025551
  ----------------------------------------
  Sum of atomic charges =    -0.000000

 -----------------------------------------------------------------
                    Cartesian Multipole Moments
 -----------------------------------------------------------------
    Charge (ESU x 10^10)
                 0.0000
    Dipole Moment (Debye)
         X      -0.7664      Y      -0.0025      Z       0.1873
       Tot       0.7889
    Quadrupole Moments (Debye-Ang)
        XX     -26.1231     XY      -0.5121     YY     -23.2980
        XZ       0.1733     YZ       0.6951     ZZ     -24.7279
    Octopole Moments (Debye-Ang^2)
       XXX    -181.1208    XXY     -33.4615    XYY     -50.1658
       YYY     -99.2857    XXZ     -13.6437    XYZ       2.0393
       YYZ     -15.0874    XZZ     -53.3352    YZZ     -35.0448
       ZZZ     -52.8090
    Hexadecapole Moments (Debye-Ang^3)
      XXXX   -1221.6579   XXXY    -279.4796   XXYY    -234.4122
      XYYY    -248.5782   YYYY    -356.0838   XXXZ    -120.5101
      XXYZ     -13.2063   XYYZ     -38.1582   YYYZ     -72.2359
      XXZZ    -195.7843   XYZZ     -87.3769   YYZZ     -80.3349
      XZZZ    -134.6043   YZZZ     -79.3432   ZZZZ    -104.4497
 -----------------------------------------------------------------
drvman_main.C: 73: calling DrvMan  Calculating analytic gradient of the SCF energy
drvman.C : 218: Calculating analytic gradient of the SCF energy
drvman.C: 244: calling SCF_Grad for normal SCF gradient
 Job number = 111, Threshold = 1.00E-11
Integral type ranges set in mkLRange.C for JobNum: 11  <1-6|7-7>
Finding J and K together
 ML is being used
 Job number = 122, Threshold = 1.00E-11
Integral type ranges set in mkLRange.C for JobNum: 22  <1-6|1-6>
Total number of integrals generated =           69343
 MakeJK  time:  CPU       0.48 s  wall       0.49 s
 Gradient of SCF Energy
            1           2           3           4           5           6
    1  -0.0191605   0.1783450   0.0232865  -0.0627265   0.1697120  -0.0448410
    2   0.0335421  -0.0096174   0.0076129  -0.0132515  -0.1322480   0.1591255
    3  -0.0618782   0.0305208   0.0036357   0.0215602   0.0705511  -0.1053563
            7           8           9          10
    1   0.0490283  -0.1414876  -0.1079107  -0.0442456
    2  -0.0690127  -0.0083193   0.0681433  -0.0359748
    3   0.0614839   0.0039753  -0.0102188  -0.0142737
 Max gradient component =       1.783E-01
 RMS gradient           =       7.830E-02
drvman.C: 248: out of SCF_Grad for normal SCF gradient
 Gradient time:  CPU 0.50 s  wall 0.52 s
 ------------------------------------------------------------------------------
                     drvman        : Timing summary (seconds)
 ------------------------------------------------------------------------------
     job step          cpu (% of tot)      sys (% of tot)     wall (% of tot)
 ------------------------------------------------------------------------------
 ------------------------------------------------------------------------------
   Grand Totals     0.4960E+00          0.1000E-05          0.5177E+00
 ------------------------------------------------------------------------------
drvman_main.C: 77: out of DrvMan =======================================================
            AB INITIO MOLECULAR DYNAMICS
=======================================================
Created directory /home/jcartus/scratch/Butadien_9.mol.dir/AIMD
AIMD will take 400 BOMD steps Velocity Verlet integration
Time step = 20.00000 a.u. ( = 0.48378 fs)
Total simulation time requested = 193.511 fs
Integral threshold = 10**(-11)
SCF convergence threshold = 10**(-8)
Generating viewable xyz trajectory,
 file (in Angstroms) at AIMD/View.xyz
Choosing nuclear velocities from Maxwell-Boltzmann
Velocities sampled from Maxwell-Boltzmann at T = 400.0 K
sqrt(kT/m) and (vx,vy,vz) for each atom:
  1   2.4064e-04  -2.40e-04   2.70e-04   3.54e-04 
  2   2.4064e-04   3.35e-05  -4.85e-04  -3.19e-04 
  3   8.3036e-04  -5.07e-04   2.06e-03  -4.46e-04 
  4   8.3036e-04   5.52e-04   9.06e-04   3.39e-04 
  5   2.4064e-04  -1.22e-05  -1.01e-04   1.72e-04 
  6   2.4064e-04   2.53e-04   9.42e-05  -2.03e-04 
  7   8.3036e-04  -8.67e-04  -4.37e-04   2.29e-03 
  8   8.3036e-04  -7.32e-04   1.77e-04  -1.55e-03 
  9   8.3036e-04   5.09e-04   9.10e-04  -8.84e-04 
 10   8.3036e-04  -6.51e-04   1.22e-03   2.96e-04 
T(nuclear) = 0.02561622 a.u.
v(c.o.m.) = ( -2.4119e-05,   4.1000e-05,   1.6234e-06)
T(c.o.m.) = 1.11594e-04 a.u.
kT/2 = 0.000633 a.u.
Tx   = 0.003668 a.u.
Ty   = 0.010570 a.u.
Tz   = 0.011378 a.u.
Mean velocities (a.u.):  -1.6624e-04   4.6183e-04   5.1615e-06
Removing c.o.m. velocity
T(nuclear) = 0.02373404 a.u.
v(c.o.m.) = (  3.3806e-21,   0.0000e+00,   1.6903e-20)
T(c.o.m.) = 1.46378e-35 a.u.
kT   = 0.001267 a.u. = 0.79 kcal/mol
Tx   = 0.003371 a.u. = 2.12 kcal/mol
Ty   = 0.008986 a.u. = 5.64 kcal/mol
Tz   = 0.011377 a.u. = 7.14 kcal/mol
Initial velocities in m/s
  1     -5.0144e+02      5.4933e+02      7.7252e+02 
  2      9.7161e+01     -1.1008e+03     -6.9933e+02 
  3     -8.2534e+02      4.0328e+03     -9.9423e+02 
  4      1.4915e+03      1.5015e+03      7.2291e+02 
  5     -2.8876e+00     -2.6117e+02      3.7382e+02 
  6      5.7623e+02      1.6577e+02     -4.4630e+02 
  7     -1.6143e+03     -1.4369e+03      4.9971e+03 
  8     -1.3185e+03     -9.2885e+01     -3.4099e+03 
  9      1.3955e+03      1.5103e+03     -1.9521e+03 
 10     -1.1419e+03      2.1875e+03      6.2769e+02 
----------------------------------------------------------------------------
       Nuclear coordinates (Angst) and velocities (a.u.)
----------------------------------------------------------------------------
             x        y        z            v_x         v_y        v_z
----------------------------------------------------------------------------
1      C    4.0633   2.1301   0.8239    -2.2921e-04   2.5110e-04   3.5312e-04
2      C    3.2818   1.0694   0.7537     4.4413e-05  -5.0319e-04  -3.1967e-04
3      H    3.8774   3.2001   0.7742    -3.7727e-04   1.8434e-03  -4.5446e-04
4      H    4.7486   1.8611   1.6031     6.8175e-04   6.8636e-04   3.3045e-04
5      C    1.7029   1.4457   0.8599    -1.3199e-06  -1.1938e-04   1.7087e-04
6      C    0.1564   1.0879   0.3191     2.6340e-04   7.5774e-05  -2.0401e-04
7      H    0.3166  -0.1011   0.7806    -7.3792e-04  -6.5679e-04   2.2842e-03
8      H   -1.2655   1.2789   0.4926    -6.0268e-04  -4.2458e-05  -1.5587e-03
9      H    2.5750   0.2323   0.6292     6.3789e-04   6.9038e-04  -8.9229e-04
10     H    1.4429   2.4872   0.7235    -5.2197e-04   9.9993e-04   2.8692e-04
----------------------------------------------------------------------------
Write nuclear velocities every 1 time steps

TIME STEP #1 (t = 0.000 a.u. = 0.00000 fs)
--------------------------------------
 Instantaneous Temperature = 499.6 K
 ----------------------------------------------------------------
             Standard Nuclear Orientation (Angstroms)
    I     Atom           X                Y                Z
 ----------------------------------------------------------------
    1      C       4.0609168725     2.1325652310     0.8279466789
    2      C       3.2813671636     1.0641609485     0.7501991294
    3      H       3.8720556902     3.2191813698     0.7692007084
    4      H       4.7594189011     1.8691075384     1.6053752470
    5      C       1.7021149186     1.4450463953     0.8614071124
    6      C       0.1594246409     1.0878920610     0.3174606316
    7      H       0.3059457963    -0.1040854606     0.8012027754
    8      H      -1.2637276602     1.2789699066     0.4759147986
    9      H       2.5879876485     0.2356310597     0.6203151177
   10      H       1.4399046033     2.4998652709     0.7273588896
 ----------------------------------------------------------------
 Nuclear Repulsion Energy =    95.8333245086 hartrees
 There are       15 alpha and       15 beta electrons

                       Distance Matrix (Angstroms)
             C (  1)   C (  2)   H (  3)   H (  4)   C (  5)   C (  6)
   C (  2)  1.324851
   H (  3)  1.104470  2.234589
   H (  4)  1.077827  1.887830  1.819148
   C (  5)  2.457183  1.628336  2.804407  3.174968
   C (  6)  4.071066  3.151881  4.304659  4.840348  1.674315
   H (  7)  4.370713  3.196957  4.874656  4.936963  2.086318  1.294714
   H (  8)  5.404109  4.558428  5.497882  6.156479  2.995398  1.444639
   H (  9)  2.410600  1.088167  3.251549  2.890277  1.518414  2.591522
   H ( 10)  2.648534  2.335113  2.536637  3.491123  1.095156  1.949696
             H (  7)   H (  8)   H (  9)
   H (  8)  2.117198
   H (  9)  2.314269  3.993134
   H ( 10)  2.841105  2.977153  2.540927

 Applying Cartesian multipole field
    Component          Value
    ---------          -----
     (2,0,0)        1.00000E-11
     (0,2,0)        2.00000E-11
     (0,0,2)       -3.00000E-10
 Nucleus-field energy     =    -0.0000000052 hartrees
 ENuRep (before)= 95.8333245086
 ENucField = -0.0000000052
 ENuRep (after) = 95.8333245034
 Job number = 2, Threshold = 1.00E-11
Integral type ranges set in mkLRange.C for JobNum: 2  <1-6|1-6>
Symmetry turned off temporarily
Symmetry turned back on
 Job number = 11, Threshold = 1.00E-11
Integral type ranges set in mkLRange.C for JobNum: 11  <1-6|7-7>
 Smallest overlap matrix eigenvalue = 1.84E-01
 Multipole matrices computed through 2nd order
 Guess from superposition of atomic densities
 Warning:  Energy on first SCF cycle will be non-variational
 SAD guess density has 30.000000 electrons
 SCF convergence criterion is 10**(-8)
 A restricted Hartree-Fock SCF calculation will be
 performed using Pulay DIIS extrapolation
 SCF converges when DIIS error is below 1.0E-08
Finding J and K together
 Job number = 22, Threshold = 1.00E-11
Integral type ranges set in mkLRange.C for JobNum: 22  <1-6|1-6>
 MakeJK  time:  CPU       0.15 s  wall       0.16 s
Fock build time:  0.15 s (CPU) 0.16 s (wall)
DIIS Errors:  Max 1.12E+00 RMS 1.76E-01

Current DIIS subspace size = 1
REM_GRID_RESTART_DIIS = 0

 ---------------------------------------
  Cycle       Energy         DIIS Error
 ---------------------------------------
    1    -151.7211225587      1.76E-01  00000
Finding J and K together
 Job number = 22, Threshold = 1.00E-11
Integral type ranges set in mkLRange.C for JobNum: 22  <1-6|1-6>
 MakeJK  time:  CPU       0.19 s  wall       0.20 s
Fock build time:  0.19 s (CPU) 0.20 s (wall)
DIIS Errors:  Max 6.50E-02 RMS 1.33E-02

Current DIIS subspace size = 2
REM_GRID_RESTART_DIIS = 0

    2    -152.4433057213      1.33E-02  00000
Finding J and K together
 Job number = 22, Threshold = 1.00E-11
Integral type ranges set in mkLRange.C for JobNum: 22  <1-6|1-6>
 MakeJK  time:  CPU       0.19 s  wall       0.19 s
Fock build time:  0.19 s (CPU) 0.19 s (wall)
DIIS Errors:  Max 2.40E-02 RMS 4.40E-03

Current DIIS subspace size = 3
REM_GRID_RESTART_DIIS = 0

    3    -152.4810692849      4.40E-03  00000
Finding J and K together
 Job number = 22, Threshold = 1.00E-11
Integral type ranges set in mkLRange.C for JobNum: 22  <1-6|1-6>
 MakeJK  time:  CPU       0.19 s  wall       0.20 s
Fock build time:  0.19 s (CPU) 0.20 s (wall)
DIIS Errors:  Max 7.54E-03 RMS 1.28E-03

Current DIIS subspace size = 4
REM_GRID_RESTART_DIIS = 0

    4    -152.4865254871      1.28E-03  00000
Finding J and K together
 Job number = 22, Threshold = 1.00E-11
Integral type ranges set in mkLRange.C for JobNum: 22  <1-6|1-6>
 MakeJK  time:  CPU       0.19 s  wall       0.20 s
Fock build time:  0.19 s (CPU) 0.20 s (wall)
DIIS Errors:  Max 3.56E-03 RMS 5.86E-04

Current DIIS subspace size = 5
REM_GRID_RESTART_DIIS = 0

    5    -152.4869596384      5.86E-04  00000
Finding J and K together
 Job number = 22, Threshold = 1.00E-11
Integral type ranges set in mkLRange.C for JobNum: 22  <1-6|1-6>
 MakeJK  time:  CPU       0.19 s  wall       0.19 s
Fock build time:  0.19 s (CPU) 0.19 s (wall)
DIIS Errors:  Max 1.88E-03 RMS 2.43E-04

Current DIIS subspace size = 6
REM_GRID_RESTART_DIIS = 0

    6    -152.4870623635      2.43E-04  00000
Finding J and K together
 Job number = 22, Threshold = 1.00E-11
Integral type ranges set in mkLRange.C for JobNum: 22  <1-6|1-6>
 MakeJK  time:  CPU       0.19 s  wall       0.19 s
Fock build time:  0.19 s (CPU) 0.19 s (wall)
DIIS Errors:  Max 7.86E-04 RMS 1.36E-04

Current DIIS subspace size = 7
REM_GRID_RESTART_DIIS = 0

    7    -152.4870959285      1.36E-04  00000
Finding J and K together
 Job number = 22, Threshold = 1.00E-11
Integral type ranges set in mkLRange.C for JobNum: 22  <1-6|1-6>
 MakeJK  time:  CPU       0.14 s  wall       0.15 s
Fock build time:  0.14 s (CPU) 0.15 s (wall)
DIIS Errors:  Max 4.04E-04 RMS 7.14E-05

Current DIIS subspace size = 8
REM_GRID_RESTART_DIIS = 0

    8    -152.4871018839      7.14E-05  00000
Finding J and K together
 Job number = 22, Threshold = 1.00E-11
Integral type ranges set in mkLRange.C for JobNum: 22  <1-6|1-6>
 MakeJK  time:  CPU       0.11 s  wall       0.11 s
Fock build time:  0.11 s (CPU) 0.11 s (wall)
DIIS Errors:  Max 1.36E-04 RMS 2.08E-05

Current DIIS subspace size = 9
REM_GRID_RESTART_DIIS = 0

    9    -152.4871057972      2.08E-05  00000
Finding J and K together
 Job number = 22, Threshold = 1.00E-11
Integral type ranges set in mkLRange.C for JobNum: 22  <1-6|1-6>
 MakeJK  time:  CPU       0.11 s  wall       0.11 s
Fock build time:  0.11 s (CPU) 0.11 s (wall)
DIIS Errors:  Max 4.84E-05 RMS 7.34E-06

Current DIIS subspace size = 10
REM_GRID_RESTART_DIIS = 0

   10    -152.4871061177      7.34E-06  00000
Finding J and K together
 Job number = 22, Threshold = 1.00E-11
Integral type ranges set in mkLRange.C for JobNum: 22  <1-6|1-6>
 MakeJK  time:  CPU       0.16 s  wall       0.16 s
Fock build time:  0.16 s (CPU) 0.16 s (wall)
DIIS Errors:  Max 1.75E-05 RMS 3.27E-06

Current DIIS subspace size = 11
REM_GRID_RESTART_DIIS = 0

   11    -152.4871061454      3.27E-06  00000
Finding J and K together
 Job number = 22, Threshold = 1.00E-11
Integral type ranges set in mkLRange.C for JobNum: 22  <1-6|1-6>
 MakeJK  time:  CPU       0.19 s  wall       0.19 s
Fock build time:  0.19 s (CPU) 0.19 s (wall)
DIIS Errors:  Max 5.90E-06 RMS 1.01E-06

Current DIIS subspace size = 12
REM_GRID_RESTART_DIIS = 0

   12    -152.4871061500      1.01E-06  00000
Finding J and K together
 Job number = 22, Threshold = 1.00E-11
Integral type ranges set in mkLRange.C for JobNum: 22  <1-6|1-6>
 MakeJK  time:  CPU       0.17 s  wall       0.17 s
Fock build time:  0.17 s (CPU) 0.17 s (wall)
DIIS Errors:  Max 2.82E-06 RMS 4.54E-07

Current DIIS subspace size = 13
REM_GRID_RESTART_DIIS = 0

   13    -152.4871061506      4.54E-07  00000
Finding J and K together
 Job number = 22, Threshold = 1.00E-11
Integral type ranges set in mkLRange.C for JobNum: 22  <1-6|1-6>
 MakeJK  time:  CPU       0.19 s  wall       0.19 s
Fock build time:  0.19 s (CPU) 0.19 s (wall)
DIIS Errors:  Max 6.23E-07 RMS 1.11E-07

Current DIIS subspace size = 14
REM_GRID_RESTART_DIIS = 0

   14    -152.4871061507      1.11E-07  00000
Finding J and K together
 Job number = 22, Threshold = 1.00E-11
Integral type ranges set in mkLRange.C for JobNum: 22  <1-6|1-6>
 MakeJK  time:  CPU       0.19 s  wall       0.19 s
Fock build time:  0.19 s (CPU) 0.19 s (wall)
DIIS Errors:  Max 1.91E-07 RMS 3.52E-08

Current DIIS subspace size = 15
REM_GRID_RESTART_DIIS = 0

   15    -152.4871061507      3.52E-08  00000
Finding J and K together
 Job number = 22, Threshold = 1.00E-11
Integral type ranges set in mkLRange.C for JobNum: 22  <1-6|1-6>
 MakeJK  time:  CPU       0.16 s  wall       0.16 s
Fock build time:  0.16 s (CPU) 0.16 s (wall)
DIIS Errors:  Max 5.55E-08 RMS 1.06E-08

Current DIIS subspace size = 15
REM_GRID_RESTART_DIIS = 0

   16    -152.4871061507      1.06E-08  00000
Finding J and K together
 Job number = 22, Threshold = 1.00E-11
Integral type ranges set in mkLRange.C for JobNum: 22  <1-6|1-6>
 MakeJK  time:  CPU       0.12 s  wall       0.12 s
Fock build time:  0.12 s (CPU) 0.12 s (wall)
DIIS Errors:  Max 8.56E-09 RMS 1.88E-09

Current DIIS subspace size = 15
REM_GRID_RESTART_DIIS = 0

   17    -152.4871061507      1.88E-09  00000 Convergence criterion met
 ---------------------------------------
 SCF time:  CPU 2.86 s  wall 2.93 s
 SCF   energy in the final basis set = -152.48710615
 Total energy in the final basis set = -152.48710615
drvman_main.C: 73: calling DrvMan  Calculating analytic gradient of the SCF energy
drvman.C : 218: Calculating analytic gradient of the SCF energy
drvman.C: 244: calling SCF_Grad for normal SCF gradient
 Job number = 111, Threshold = 1.00E-11
Integral type ranges set in mkLRange.C for JobNum: 11  <1-6|7-7>
 Warning:  Cost of integrals step H3 set to -366807585
 Warning:  Retrieved cost of -366807585 for integrals step H3
 Warning:  Retrieved cost of -366807585 for integrals step H3
 Warning:  Retrieved cost of -366807585 for integrals step H3
Finding J and K together
 ML is being used
 Job number = 122, Threshold = 1.00E-11
Integral type ranges set in mkLRange.C for JobNum: 22  <1-6|1-6>
 MakeJK  time:  CPU       0.39 s  wall       0.39 s
 Gradient of SCF Energy
            1           2           3           4           5           6
    1  -0.0167211   0.1682680   0.0209753  -0.0573156   0.1695026  -0.0422307
    2   0.0280292  -0.0288397   0.0222081  -0.0142291  -0.1409032   0.1621678
    3  -0.0618202   0.0267583   0.0018427   0.0252325   0.0715773  -0.1076059
            7           8           9          10
    1   0.0466159  -0.1412026  -0.1014138  -0.0464779
    2  -0.0713305  -0.0093393   0.0771642  -0.0249275
    3   0.0643877   0.0025808  -0.0082747  -0.0146786
 Max gradient component =       1.695E-01
 RMS gradient           =       7.830E-02
drvman.C: 248: out of SCF_Grad for normal SCF gradient
 Gradient time:  CPU 0.40 s  wall 0.40 s
 ------------------------------------------------------------------------------
                     drvman        : Timing summary (seconds)
 ------------------------------------------------------------------------------
     job step          cpu (% of tot)      sys (% of tot)     wall (% of tot)
 ------------------------------------------------------------------------------
 ------------------------------------------------------------------------------
   Grand Totals     0.4000E+00          0.4000E-05          0.4030E+00
 ------------------------------------------------------------------------------
drvman_main.C: 77: out of DrvMan  Time for this dynamics step: 3.3 s (CPU) 3.4 s (wall)

TIME STEP #2 (t = 20.000 a.u. = 0.48378 fs)
--------------------------------------
 Instantaneous Temperature = 551.2 K
 ----------------------------------------------------------------
             Standard Nuclear Orientation (Angstroms)
    I     Atom           X                Y                Z
 ----------------------------------------------------------------
    1      C       4.0587455474     2.1347892367     0.8325815626
    2      C       3.2793460762     1.0591609654     0.7464093315
    3      H       3.8643046851     3.2356940067     0.7639691062
    4      H       4.7768514928     1.8787744970     1.6047232979
    5      C       1.6996396402     1.4457862446     0.8621816044
    6      C       0.1628379286     1.0863549003     0.3168525157
    7      H       0.2899406870    -0.0988424863     0.8144170417
    8      H      -1.2456864830     1.2800758568     0.4588922422
    9      H       2.6126398098     0.2301215467     0.6124136122
   10      H       1.4422842181     2.5153925915     0.7329089929
 ----------------------------------------------------------------
 Nuclear Repulsion Energy =    95.6762551657 hartrees
 There are       15 alpha and       15 beta electrons

                       Distance Matrix (Angstroms)
             C (  1)   C (  2)   H (  3)   H (  4)   C (  5)   C (  6)
   C (  2)  1.331114
   H (  3)  1.120047  2.253837
   H (  4)  1.085091  1.910757  1.838706
   C (  5)  2.457841  1.630446  2.810550  3.195009
   C (  6)  4.067344  3.146090  4.303537  4.855477  1.669831
   H (  7)  4.381019  3.206578  4.888533  4.966681  2.091748  1.291673
   H (  8)  5.385831  4.539536  5.479920  6.159735  2.977423  1.428861
   H (  9)  2.401553  1.072268  3.259310  2.895954  1.540712  2.611900
   H ( 10)  2.645877  2.344267  2.527050  3.504951  1.107701  1.962711
             H (  7)   H (  8)   H (  9)
   H (  8)  2.094269
   H (  9)  2.354560  4.001582
   H ( 10)  2.858105  2.970905  2.570353

 Applying Cartesian multipole field
    Component          Value
    ---------          -----
     (2,0,0)        1.00000E-11
     (0,2,0)        2.00000E-11
     (0,0,2)       -3.00000E-10
 Nucleus-field energy     =    -0.0000000052 hartrees
 ENuRep (before)= 95.6762551657
 ENucField = -0.0000000052
 ENuRep (after) = 95.6762551605
 Job number = 2, Threshold = 1.00E-11
Integral type ranges set in mkLRange.C for JobNum: 2  <1-6|1-6>
Symmetry turned off temporarily
Symmetry turned back on
 Job number = 11, Threshold = 1.00E-11
Integral type ranges set in mkLRange.C for JobNum: 11  <1-6|7-7>
 Smallest overlap matrix eigenvalue = 1.88E-01
 Multipole matrices computed through 2nd order
 Guess from superposition of atomic densities
 Warning:  Energy on first SCF cycle will be non-variational
 SAD guess density has 30.000000 electrons
 SCF convergence criterion is 10**(-8)
 A restricted Hartree-Fock SCF calculation will be
 performed using Pulay DIIS extrapolation
 SCF converges when DIIS error is below 1.0E-08
Finding J and K together
 Job number = 22, Threshold = 1.00E-11
Integral type ranges set in mkLRange.C for JobNum: 22  <1-6|1-6>
 MakeJK  time:  CPU       0.09 s  wall       0.09 s
Fock build time:  0.09 s (CPU) 0.09 s (wall)
DIIS Errors:  Max 1.11E+00 RMS 1.74E-01

Current DIIS subspace size = 1
REM_GRID_RESTART_DIIS = 0

 ---------------------------------------
  Cycle       Energy         DIIS Error
 ---------------------------------------
    1    -151.6930687494      1.74E-01  00000
Finding J and K together
 Job number = 22, Threshold = 1.00E-11
Integral type ranges set in mkLRange.C for JobNum: 22  <1-6|1-6>
 MakeJK  time:  CPU       0.12 s  wall       0.12 s
Fock build time:  0.12 s (CPU) 0.12 s (wall)
DIIS Errors:  Max 6.46E-02 RMS 1.33E-02

Current DIIS subspace size = 2
REM_GRID_RESTART_DIIS = 0

    2    -152.4587769468      1.33E-02  00000
Finding J and K together
 Job number = 22, Threshold = 1.00E-11
Integral type ranges set in mkLRange.C for JobNum: 22  <1-6|1-6>
 MakeJK  time:  CPU       0.13 s  wall       0.13 s
Fock build time:  0.13 s (CPU) 0.13 s (wall)
DIIS Errors:  Max 2.42E-02 RMS 4.40E-03

Current DIIS subspace size = 3
REM_GRID_RESTART_DIIS = 0

    3    -152.4965301967      4.40E-03  00000
Finding J and K together
 Job number = 22, Threshold = 1.00E-11
Integral type ranges set in mkLRange.C for JobNum: 22  <1-6|1-6>
 MakeJK  time:  CPU       0.13 s  wall       0.13 s
Fock build time:  0.13 s (CPU) 0.13 s (wall)
DIIS Errors:  Max 7.14E-03 RMS 1.26E-03

Current DIIS subspace size = 4
REM_GRID_RESTART_DIIS = 0

    4    -152.5018842331      1.26E-03  00000
Finding J and K together
 Job number = 22, Threshold = 1.00E-11
Integral type ranges set in mkLRange.C for JobNum: 22  <1-6|1-6>
 MakeJK  time:  CPU       0.12 s  wall       0.12 s
Fock build time:  0.12 s (CPU) 0.12 s (wall)
DIIS Errors:  Max 3.27E-03 RMS 5.57E-04

Current DIIS subspace size = 5
REM_GRID_RESTART_DIIS = 0

    5    -152.5022961999      5.57E-04  00000
Finding J and K together
 Job number = 22, Threshold = 1.00E-11
Integral type ranges set in mkLRange.C for JobNum: 22  <1-6|1-6>
 MakeJK  time:  CPU       0.16 s  wall       0.17 s
Fock build time:  0.16 s (CPU) 0.17 s (wall)
DIIS Errors:  Max 1.66E-03 RMS 2.25E-04

Current DIIS subspace size = 6
REM_GRID_RESTART_DIIS = 0

    6    -152.5023899161      2.25E-04  00000
Finding J and K together
 Job number = 22, Threshold = 1.00E-11
Integral type ranges set in mkLRange.C for JobNum: 22  <1-6|1-6>
 MakeJK  time:  CPU       0.16 s  wall       0.16 s
Fock build time:  0.16 s (CPU) 0.16 s (wall)
DIIS Errors:  Max 5.82E-04 RMS 9.71E-05

Current DIIS subspace size = 7
REM_GRID_RESTART_DIIS = 0

    7    -152.5024201955      9.71E-05  00000
Finding J and K together
 Job number = 22, Threshold = 1.00E-11
Integral type ranges set in mkLRange.C for JobNum: 22  <1-6|1-6>
 MakeJK  time:  CPU       0.18 s  wall       0.19 s
Fock build time:  0.18 s (CPU) 0.19 s (wall)
DIIS Errors:  Max 3.89E-04 RMS 5.72E-05

Current DIIS subspace size = 8
REM_GRID_RESTART_DIIS = 0

    8    -152.5024255424      5.72E-05  00000
Finding J and K together
 Job number = 22, Threshold = 1.00E-11
Integral type ranges set in mkLRange.C for JobNum: 22  <1-6|1-6>
 MakeJK  time:  CPU       0.17 s  wall       0.18 s
Fock build time:  0.17 s (CPU) 0.18 s (wall)
DIIS Errors:  Max 1.26E-04 RMS 2.45E-05

Current DIIS subspace size = 9
REM_GRID_RESTART_DIIS = 0

    9    -152.5024273355      2.45E-05  00000
Finding J and K together
 Job number = 22, Threshold = 1.00E-11
Integral type ranges set in mkLRange.C for JobNum: 22  <1-6|1-6>
 MakeJK  time:  CPU       0.17 s  wall       0.18 s
Fock build time:  0.17 s (CPU) 0.18 s (wall)
DIIS Errors:  Max 5.89E-05 RMS 9.31E-06

Current DIIS subspace size = 10
REM_GRID_RESTART_DIIS = 0

   10    -152.5024276371      9.31E-06  00000
Finding J and K together
 Job number = 22, Threshold = 1.00E-11
Integral type ranges set in mkLRange.C for JobNum: 22  <1-6|1-6>
 MakeJK  time:  CPU       0.18 s  wall       0.18 s
Fock build time:  0.18 s (CPU) 0.18 s (wall)
DIIS Errors:  Max 1.89E-05 RMS 3.35E-06

Current DIIS subspace size = 11
REM_GRID_RESTART_DIIS = 0

   11    -152.5024276816      3.35E-06  00000
Finding J and K together
 Job number = 22, Threshold = 1.00E-11
Integral type ranges set in mkLRange.C for JobNum: 22  <1-6|1-6>
 MakeJK  time:  CPU       0.15 s  wall       0.15 s
Fock build time:  0.15 s (CPU) 0.15 s (wall)
DIIS Errors:  Max 5.86E-06 RMS 9.78E-07

Current DIIS subspace size = 12
REM_GRID_RESTART_DIIS = 0

   12    -152.5024276870      9.78E-07  00000
Finding J and K together
 Job number = 22, Threshold = 1.00E-11
Integral type ranges set in mkLRange.C for JobNum: 22  <1-6|1-6>
 MakeJK  time:  CPU       0.17 s  wall       0.17 s
Fock build time:  0.17 s (CPU) 0.17 s (wall)
DIIS Errors:  Max 2.75E-06 RMS 4.36E-07

Current DIIS subspace size = 13
REM_GRID_RESTART_DIIS = 0

   13    -152.5024276875      4.36E-07  00000
Finding J and K together
 Job number = 22, Threshold = 1.00E-11
Integral type ranges set in mkLRange.C for JobNum: 22  <1-6|1-6>
 MakeJK  time:  CPU       0.19 s  wall       0.19 s
Fock build time:  0.19 s (CPU) 0.19 s (wall)
DIIS Errors:  Max 5.86E-07 RMS 1.04E-07

Current DIIS subspace size = 14
REM_GRID_RESTART_DIIS = 0

   14    -152.5024276876      1.04E-07  00000
Finding J and K together
 Job number = 22, Threshold = 1.00E-11
Integral type ranges set in mkLRange.C for JobNum: 22  <1-6|1-6>
 MakeJK  time:  CPU       0.18 s  wall       0.18 s
Fock build time:  0.18 s (CPU) 0.18 s (wall)
DIIS Errors:  Max 1.70E-07 RMS 3.29E-08

Current DIIS subspace size = 15
REM_GRID_RESTART_DIIS = 0

   15    -152.5024276876      3.29E-08  00000
Finding J and K together
 Job number = 22, Threshold = 1.00E-11
Integral type ranges set in mkLRange.C for JobNum: 22  <1-6|1-6>
 MakeJK  time:  CPU       0.12 s  wall       0.12 s
Fock build time:  0.12 s (CPU) 0.12 s (wall)
DIIS Errors:  Max 5.01E-08 RMS 9.66E-09

Current DIIS subspace size = 15
REM_GRID_RESTART_DIIS = 0

   16    -152.5024276876      9.66E-09  00000 Convergence criterion met
 ---------------------------------------
 SCF time:  CPU 2.46 s  wall 2.48 s
 SCF   energy in the final basis set = -152.50242769
 Total energy in the final basis set = -152.50242769
drvman_main.C: 73: calling DrvMan  Calculating analytic gradient of the SCF energy
drvman.C : 218: Calculating analytic gradient of the SCF energy
drvman.C: 244: calling SCF_Grad for normal SCF gradient
 Job number = 111, Threshold = 1.00E-11
Integral type ranges set in mkLRange.C for JobNum: 11  <1-6|7-7>
Finding J and K together
 ML is being used
 Job number = 122, Threshold = 1.00E-11
Integral type ranges set in mkLRange.C for JobNum: 22  <1-6|1-6>
 MakeJK  time:  CPU       0.41 s  wall       0.42 s
 Gradient of SCF Energy
            1           2           3           4           5           6
    1  -0.0153093   0.1601863   0.0187835  -0.0503094   0.1678924  -0.0425595
    2   0.0264895  -0.0510042   0.0344501  -0.0151018  -0.1464391   0.1609690
    3  -0.0618878   0.0221626  -0.0001570   0.0298086   0.0735533  -0.1094393
            7           8           9          10
    1   0.0428360  -0.1395340  -0.0947439  -0.0472422
    2  -0.0704801  -0.0108681   0.0861046  -0.0141200
    3   0.0659718   0.0011975  -0.0064961  -0.0147137
 Max gradient component =       1.679E-01
 RMS gradient           =       7.816E-02
drvman.C: 248: out of SCF_Grad for normal SCF gradient
 Gradient time:  CPU 0.42 s  wall 0.44 s
 ------------------------------------------------------------------------------
                     drvman        : Timing summary (seconds)
 ------------------------------------------------------------------------------
     job step          cpu (% of tot)      sys (% of tot)     wall (% of tot)
 ------------------------------------------------------------------------------
 ------------------------------------------------------------------------------
   Grand Totals     0.4200E+00          0.1000E-05          0.4371E+00
 ------------------------------------------------------------------------------
drvman_main.C: 77: out of DrvMan  Time for this dynamics step: 2.9 s (CPU) 2.9 s (wall)

TIME STEP #3 (t = 40.000 a.u. = 0.96755 fs)
--------------------------------------
 Instantaneous Temperature = 873.2 K
 ----------------------------------------------------------------
             Standard Nuclear Orientation (Angstroms)
    I     Atom           X                Y                Z
 ----------------------------------------------------------------
    1      C       4.0567223629     2.1367569157     0.8378153054
    2      C       3.2757749407     1.0546545261     0.7424050764
    3      H       3.8543895153     3.2482374332     0.7587555932
    4      H       4.8000805458     1.8901814237     1.6006369094
    5      C       1.6955397450     1.4479431171     0.8622443552
    6      C       0.1666630450     1.0832601177     0.3173033924
    7      H       0.2690001735    -0.0854790643     0.8200302887
    8      H      -1.2115687200     1.2824339862     0.4417317146
    9      H       2.6482080049     0.2146913858     0.6052605661
   10      H       1.4501068994     2.5325467637     0.7401543489
 ----------------------------------------------------------------
 Nuclear Repulsion Energy =    95.5706139538 hartrees
 There are       15 alpha and       15 beta electrons

                       Distance Matrix (Angstroms)
             C (  1)   C (  2)   H (  3)   H (  4)   C (  5)   C (  6)
   C (  2)  1.337882
   H (  3)  1.132510  2.268671
   H (  4)  1.093288  1.938601  1.856721
   C (  5)  2.459724  1.632844  2.812899  3.221641
   C (  6)  4.063662  3.138169  4.298992  4.875103  1.663556
   H (  7)  4.391525  3.216617  4.896166  5.004325  2.094799  1.276385
   H (  8)  5.351789  4.503170  5.443236  6.152426  2.942024  1.398097
   H (  9)  2.394229  1.057444  3.268155  2.903204  1.579407  2.644881
   H ( 10)  2.638301  2.348879  2.508612  3.517867  1.118708  1.981530
             H (  7)   H (  8)   H (  9)
   H (  8)  2.050946
   H (  9)  2.407667  4.008078
   H ( 10)  2.873230  2.955733  2.612680

 Applying Cartesian multipole field
    Component          Value
    ---------          -----
     (2,0,0)        1.00000E-11
     (0,2,0)        2.00000E-11
     (0,0,2)       -3.00000E-10
 Nucleus-field energy     =    -0.0000000051 hartrees
 ENuRep (before)= 95.5706139538
 ENucField = -0.0000000051
 ENuRep (after) = 95.5706139486
 Job number = 2, Threshold = 1.00E-11
Integral type ranges set in mkLRange.C for JobNum: 2  <1-6|1-6>
Symmetry turned off temporarily
Symmetry turned back on
 Job number = 11, Threshold = 1.00E-11
Integral type ranges set in mkLRange.C for JobNum: 11  <1-6|7-7>
 Smallest overlap matrix eigenvalue = 1.92E-01
 Multipole matrices computed through 2nd order
 Guess from superposition of atomic densities
 Warning:  Energy on first SCF cycle will be non-variational
 SAD guess density has 30.000000 electrons
 SCF convergence criterion is 10**(-8)
 A restricted Hartree-Fock SCF calculation will be
 performed using Pulay DIIS extrapolation
 SCF converges when DIIS error is below 1.0E-08
Finding J and K together
 Job number = 22, Threshold = 1.00E-11
Integral type ranges set in mkLRange.C for JobNum: 22  <1-6|1-6>
 MakeJK  time:  CPU       0.12 s  wall       0.14 s
Fock build time:  0.12 s (CPU) 0.14 s (wall)
DIIS Errors:  Max 1.09E+00 RMS 1.72E-01

Current DIIS subspace size = 1
REM_GRID_RESTART_DIIS = 0

 ---------------------------------------
  Cycle       Energy         DIIS Error
 ---------------------------------------
    1    -151.6768447137      1.72E-01  00000
Finding J and K together
 Job number = 22, Threshold = 1.00E-11
Integral type ranges set in mkLRange.C for JobNum: 22  <1-6|1-6>
 MakeJK  time:  CPU       0.18 s  wall       0.22 s
Fock build time:  0.18 s (CPU) 0.22 s (wall)
DIIS Errors:  Max 6.40E-02 RMS 1.33E-02

Current DIIS subspace size = 2
REM_GRID_RESTART_DIIS = 0

    2    -152.4873868317      1.33E-02  00000
Finding J and K together
 Job number = 22, Threshold = 1.00E-11
Integral type ranges set in mkLRange.C for JobNum: 22  <1-6|1-6>
 MakeJK  time:  CPU       0.16 s  wall       0.15 s
Fock build time:  0.16 s (CPU) 0.15 s (wall)
DIIS Errors:  Max 2.46E-02 RMS 4.39E-03

Current DIIS subspace size = 3
REM_GRID_RESTART_DIIS = 0

    3    -152.5245861942      4.39E-03  00000
Finding J and K together
 Job number = 22, Threshold = 1.00E-11
Integral type ranges set in mkLRange.C for JobNum: 22  <1-6|1-6>
 MakeJK  time:  CPU       0.16 s  wall       0.16 s
Fock build time:  0.16 s (CPU) 0.16 s (wall)
DIIS Errors:  Max 7.18E-03 RMS 1.31E-03

Current DIIS subspace size = 4
REM_GRID_RESTART_DIIS = 0

    4    -152.5297162657      1.31E-03  00000
Finding J and K together
 Job number = 22, Threshold = 1.00E-11
Integral type ranges set in mkLRange.C for JobNum: 22  <1-6|1-6>
 MakeJK  time:  CPU       0.13 s  wall       0.13 s
Fock build time:  0.13 s (CPU) 0.13 s (wall)
DIIS Errors:  Max 3.63E-03 RMS 5.43E-04

Current DIIS subspace size = 5
REM_GRID_RESTART_DIIS = 0

    5    -152.5301151780      5.43E-04  00000
Finding J and K together
 Job number = 22, Threshold = 1.00E-11
Integral type ranges set in mkLRange.C for JobNum: 22  <1-6|1-6>
 MakeJK  time:  CPU       0.12 s  wall       0.12 s
Fock build time:  0.12 s (CPU) 0.12 s (wall)
DIIS Errors:  Max 1.82E-03 RMS 2.51E-04

Current DIIS subspace size = 6
REM_GRID_RESTART_DIIS = 0

    6    -152.5302020926      2.51E-04  00000
Finding J and K together
 Job number = 22, Threshold = 1.00E-11
Integral type ranges set in mkLRange.C for JobNum: 22  <1-6|1-6>
 MakeJK  time:  CPU       0.11 s  wall       0.12 s
Fock build time:  0.11 s (CPU) 0.12 s (wall)
DIIS Errors:  Max 1.01E-03 RMS 1.36E-04

Current DIIS subspace size = 7
REM_GRID_RESTART_DIIS = 0

    7    -152.5302268931      1.36E-04  00000
Finding J and K together
 Job number = 22, Threshold = 1.00E-11
Integral type ranges set in mkLRange.C for JobNum: 22  <1-6|1-6>
 MakeJK  time:  CPU       0.17 s  wall       0.17 s
Fock build time:  0.17 s (CPU) 0.17 s (wall)
DIIS Errors:  Max 3.79E-04 RMS 6.52E-05

Current DIIS subspace size = 8
REM_GRID_RESTART_DIIS = 0

    8    -152.5302337567      6.52E-05  00000
Finding J and K together
 Job number = 22, Threshold = 1.00E-11
Integral type ranges set in mkLRange.C for JobNum: 22  <1-6|1-6>
 MakeJK  time:  CPU       0.18 s  wall       0.18 s
Fock build time:  0.18 s (CPU) 0.18 s (wall)
DIIS Errors:  Max 1.65E-04 RMS 2.62E-05

Current DIIS subspace size = 9
REM_GRID_RESTART_DIIS = 0

    9    -152.5302363291      2.62E-05  00000
Finding J and K together
 Job number = 22, Threshold = 1.00E-11
Integral type ranges set in mkLRange.C for JobNum: 22  <1-6|1-6>
 MakeJK  time:  CPU       0.18 s  wall       0.19 s
Fock build time:  0.18 s (CPU) 0.19 s (wall)
DIIS Errors:  Max 6.17E-05 RMS 8.66E-06

Current DIIS subspace size = 10
REM_GRID_RESTART_DIIS = 0

   10    -152.5302367667      8.66E-06  00000
Finding J and K together
 Job number = 22, Threshold = 1.00E-11
Integral type ranges set in mkLRange.C for JobNum: 22  <1-6|1-6>
 MakeJK  time:  CPU       0.18 s  wall       0.20 s
Fock build time:  0.18 s (CPU) 0.20 s (wall)
DIIS Errors:  Max 1.72E-05 RMS 3.13E-06

Current DIIS subspace size = 11
REM_GRID_RESTART_DIIS = 0

   11    -152.5302368187      3.13E-06  00000
Finding J and K together
 Job number = 22, Threshold = 1.00E-11
Integral type ranges set in mkLRange.C for JobNum: 22  <1-6|1-6>
 MakeJK  time:  CPU       0.19 s  wall       0.19 s
Fock build time:  0.19 s (CPU) 0.19 s (wall)
DIIS Errors:  Max 5.45E-06 RMS 8.86E-07

Current DIIS subspace size = 12
REM_GRID_RESTART_DIIS = 0

   12    -152.5302368232      8.86E-07  00000
Finding J and K together
 Job number = 22, Threshold = 1.00E-11
Integral type ranges set in mkLRange.C for JobNum: 22  <1-6|1-6>
 MakeJK  time:  CPU       0.19 s  wall       0.19 s
Fock build time:  0.19 s (CPU) 0.19 s (wall)
DIIS Errors:  Max 2.54E-06 RMS 3.96E-07

Current DIIS subspace size = 13
REM_GRID_RESTART_DIIS = 0

   13    -152.5302368236      3.96E-07  00000
Finding J and K together
 Job number = 22, Threshold = 1.00E-11
Integral type ranges set in mkLRange.C for JobNum: 22  <1-6|1-6>
 MakeJK  time:  CPU       0.17 s  wall       0.18 s
Fock build time:  0.18 s (CPU) 0.18 s (wall)
DIIS Errors:  Max 5.10E-07 RMS 8.93E-08

Current DIIS subspace size = 14
REM_GRID_RESTART_DIIS = 0

   14    -152.5302368237      8.93E-08  00000
Finding J and K together
 Job number = 22, Threshold = 1.00E-11
Integral type ranges set in mkLRange.C for JobNum: 22  <1-6|1-6>
 MakeJK  time:  CPU       0.19 s  wall       0.19 s
Fock build time:  0.19 s (CPU) 0.19 s (wall)
DIIS Errors:  Max 1.37E-07 RMS 2.83E-08

Current DIIS subspace size = 15
REM_GRID_RESTART_DIIS = 0

   15    -152.5302368237      2.83E-08  00000
Finding J and K together
 Job number = 22, Threshold = 1.00E-11
Integral type ranges set in mkLRange.C for JobNum: 22  <1-6|1-6>
 MakeJK  time:  CPU       0.18 s  wall       0.18 s
Fock build time:  0.18 s (CPU) 0.18 s (wall)
DIIS Errors:  Max 4.03E-08 RMS 7.85E-09

Current DIIS subspace size = 15
REM_GRID_RESTART_DIIS = 0

   16    -152.5302368237      7.85E-09  00000 Convergence criterion met
 ---------------------------------------
 SCF time:  CPU 2.64 s  wall 2.75 s
 SCF   energy in the final basis set = -152.53023682
 Total energy in the final basis set = -152.53023682
drvman_main.C: 73: calling DrvMan  Calculating analytic gradient of the SCF energy
drvman.C : 218: Calculating analytic gradient of the SCF energy
drvman.C: 244: calling SCF_Grad for normal SCF gradient
 Job number = 111, Threshold = 1.00E-11
Integral type ranges set in mkLRange.C for JobNum: 11  <1-6|7-7>
Finding J and K together
 ML is being used
 Job number = 122, Threshold = 1.00E-11
Integral type ranges set in mkLRange.C for JobNum: 22  <1-6|1-6>
 MakeJK  time:  CPU       0.47 s  wall       0.48 s
 Gradient of SCF Energy
            1           2           3           4           5           6
    1  -0.0147414   0.1545807   0.0167510  -0.0420559   0.1646829  -0.0462099
    2   0.0285519  -0.0740029   0.0436926  -0.0156421  -0.1476920   0.1553954
    3  -0.0616385   0.0168754  -0.0022445   0.0347305   0.0765839  -0.1107161
            7           8           9          10
    1   0.0377390  -0.1358077  -0.0885204  -0.0464184
    2  -0.0662736  -0.0130309   0.0931916  -0.0041899
    3   0.0660680  -0.0001698  -0.0052105  -0.0142783
 Max gradient component =       1.647E-01
 RMS gradient           =       7.767E-02
drvman.C: 248: out of SCF_Grad for normal SCF gradient
 Gradient time:  CPU 0.49 s  wall 0.50 s
 ------------------------------------------------------------------------------
                     drvman        : Timing summary (seconds)
 ------------------------------------------------------------------------------
     job step          cpu (% of tot)      sys (% of tot)     wall (% of tot)
 ------------------------------------------------------------------------------
 ------------------------------------------------------------------------------
   Grand Totals     0.4880E+00          0.4000E-05          0.5030E+00
 ------------------------------------------------------------------------------
drvman_main.C: 77: out of DrvMan  Time for this dynamics step: 3.2 s (CPU) 3.3 s (wall)

TIME STEP #4 (t = 60.000 a.u. = 1.45133 fs)
--------------------------------------
 Instantaneous Temperature = 1457.3 K
 ----------------------------------------------------------------
             Standard Nuclear Orientation (Angstroms)
    I     Atom           X                Y                Z
 ----------------------------------------------------------------
    1      C       4.0548418237     2.1384483116     0.8436454948
    2      C       3.2707080001     1.0508641781     0.7382375264
    3      H       3.8425443551     3.2557467604     0.7538006805
    4      H       4.8281551227     1.9033905775     1.5925490064
    5      C       1.6898462900     1.4515291361     0.8615660392
    6      C       0.1709353136     1.0786616463     0.3188256176
    7      H       0.2437115095    -0.0644798437     0.8180314307
    8      H      -1.1618037060     1.2862934823     0.4245907528
    9      H       2.6939751853     0.1885240426     0.5987078593
   10      H       1.4632777369     2.5501836861     0.7490447947
 ----------------------------------------------------------------
 Nuclear Repulsion Energy =    95.5256240196 hartrees
 There are       15 alpha and       15 beta electrons

                       Distance Matrix (Angstroms)
             C (  1)   C (  2)   H (  3)   H (  4)   C (  5)   C (  6)
   C (  2)  1.344922
   H (  3)  1.140832  2.277882
   H (  4)  1.101872  1.970353  1.871843
   C (  5)  2.462800  1.635502  2.810858  3.253843
   C (  6)  4.059965  3.128142  4.290643  4.898188  1.655502
   H (  7)  4.402075  3.226928  4.896900  5.048714  2.095587  1.249510
   H (  8)  5.302374  4.449827  5.388008  6.133885  2.889664  1.352956
   H (  9)  2.390430  1.046766  3.278890  2.912595  1.634794  2.690057
   H ( 10)  2.625772  2.348378  2.481683  3.528773  1.127402  2.005147
             H (  7)   H (  8)   H (  9)
   H (  8)  1.988682
   H (  9)  2.473036  4.012785
   H ( 10)  2.885926  2.931508  2.667331

 Applying Cartesian multipole field
    Component          Value
    ---------          -----
     (2,0,0)        1.00000E-11
     (0,2,0)        2.00000E-11
     (0,0,2)       -3.00000E-10
 Nucleus-field energy     =    -0.0000000051 hartrees
 ENuRep (before)= 95.5256240196
 ENucField = -0.0000000051
 ENuRep (after) = 95.5256240145
 Job number = 2, Threshold = 1.00E-11
Integral type ranges set in mkLRange.C for JobNum: 2  <1-6|1-6>
Symmetry turned off temporarily
Symmetry turned back on
 Job number = 11, Threshold = 1.00E-11
Integral type ranges set in mkLRange.C for JobNum: 11  <1-6|7-7>
 Smallest overlap matrix eigenvalue = 1.96E-01
 Multipole matrices computed through 2nd order
 Guess from superposition of atomic densities
 Warning:  Energy on first SCF cycle will be non-variational
 SAD guess density has 30.000000 electrons
 SCF convergence criterion is 10**(-8)
 A restricted Hartree-Fock SCF calculation will be
 performed using Pulay DIIS extrapolation
 SCF converges when DIIS error is below 1.0E-08
Finding J and K together
 Job number = 22, Threshold = 1.00E-11
Integral type ranges set in mkLRange.C for JobNum: 22  <1-6|1-6>
 MakeJK  time:  CPU       0.14 s  wall       0.14 s
Fock build time:  0.14 s (CPU) 0.14 s (wall)
DIIS Errors:  Max 1.07E+00 RMS 1.71E-01

Current DIIS subspace size = 1
REM_GRID_RESTART_DIIS = 0

 ---------------------------------------
  Cycle       Energy         DIIS Error
 ---------------------------------------
    1    -151.6751674677      1.71E-01  00000
Finding J and K together
 Job number = 22, Threshold = 1.00E-11
Integral type ranges set in mkLRange.C for JobNum: 22  <1-6|1-6>
 MakeJK  time:  CPU       0.18 s  wall       0.18 s
Fock build time:  0.18 s (CPU) 0.18 s (wall)
DIIS Errors:  Max 6.34E-02 RMS 1.33E-02

Current DIIS subspace size = 2
REM_GRID_RESTART_DIIS = 0

    2    -152.5279311277      1.33E-02  00000
Finding J and K together
 Job number = 22, Threshold = 1.00E-11
Integral type ranges set in mkLRange.C for JobNum: 22  <1-6|1-6>
 MakeJK  time:  CPU       0.15 s  wall       0.16 s
Fock build time:  0.15 s (CPU) 0.16 s (wall)
DIIS Errors:  Max 2.51E-02 RMS 4.40E-03

Current DIIS subspace size = 3
REM_GRID_RESTART_DIIS = 0

    3    -152.5641666786      4.40E-03  00000
Finding J and K together
 Job number = 22, Threshold = 1.00E-11
Integral type ranges set in mkLRange.C for JobNum: 22  <1-6|1-6>
 MakeJK  time:  CPU       0.14 s  wall       0.14 s
Fock build time:  0.14 s (CPU) 0.14 s (wall)
DIIS Errors:  Max 7.49E-03 RMS 1.54E-03

Current DIIS subspace size = 4
REM_GRID_RESTART_DIIS = 0

    4    -152.5689491918      1.54E-03  00000
Finding J and K together
 Job number = 22, Threshold = 1.00E-11
Integral type ranges set in mkLRange.C for JobNum: 22  <1-6|1-6>
 MakeJK  time:  CPU       0.15 s  wall       0.15 s
Fock build time:  0.15 s (CPU) 0.15 s (wall)
DIIS Errors:  Max 4.18E-03 RMS 6.04E-04

Current DIIS subspace size = 5
REM_GRID_RESTART_DIIS = 0

    5    -152.5693892041      6.04E-04  00000
Finding J and K together
 Job number = 22, Threshold = 1.00E-11
Integral type ranges set in mkLRange.C for JobNum: 22  <1-6|1-6>
 MakeJK  time:  CPU       0.14 s  wall       0.14 s
Fock build time:  0.14 s (CPU) 0.14 s (wall)
DIIS Errors:  Max 2.18E-03 RMS 3.12E-04

Current DIIS subspace size = 6
REM_GRID_RESTART_DIIS = 0

    6    -152.5694749124      3.12E-04  00000
Finding J and K together
 Job number = 22, Threshold = 1.00E-11
Integral type ranges set in mkLRange.C for JobNum: 22  <1-6|1-6>
 MakeJK  time:  CPU       0.17 s  wall       0.18 s
Fock build time:  0.17 s (CPU) 0.18 s (wall)
DIIS Errors:  Max 8.56E-04 RMS 1.22E-04

Current DIIS subspace size = 7
REM_GRID_RESTART_DIIS = 0

    7    -152.5695033274      1.22E-04  00000
Finding J and K together
 Job number = 22, Threshold = 1.00E-11
Integral type ranges set in mkLRange.C for JobNum: 22  <1-6|1-6>
 MakeJK  time:  CPU       0.17 s  wall       0.18 s
Fock build time:  0.17 s (CPU) 0.18 s (wall)
DIIS Errors:  Max 3.46E-04 RMS 5.94E-05

Current DIIS subspace size = 8
REM_GRID_RESTART_DIIS = 0

    8    -152.5695108455      5.94E-05  00000
Finding J and K together
 Job number = 22, Threshold = 1.00E-11
Integral type ranges set in mkLRange.C for JobNum: 22  <1-6|1-6>
 MakeJK  time:  CPU       0.16 s  wall       0.16 s
Fock build time:  0.16 s (CPU) 0.16 s (wall)
DIIS Errors:  Max 1.52E-04 RMS 2.62E-05

Current DIIS subspace size = 9
REM_GRID_RESTART_DIIS = 0

    9    -152.5695128182      2.62E-05  00000
Finding J and K together
 Job number = 22, Threshold = 1.00E-11
Integral type ranges set in mkLRange.C for JobNum: 22  <1-6|1-6>
 MakeJK  time:  CPU       0.17 s  wall       0.17 s
Fock build time:  0.17 s (CPU) 0.17 s (wall)
DIIS Errors:  Max 5.50E-05 RMS 7.86E-06

Current DIIS subspace size = 10
REM_GRID_RESTART_DIIS = 0

   10    -152.5695132788      7.86E-06  00000
Finding J and K together
 Job number = 22, Threshold = 1.00E-11
Integral type ranges set in mkLRange.C for JobNum: 22  <1-6|1-6>
 MakeJK  time:  CPU       0.12 s  wall       0.12 s
Fock build time:  0.12 s (CPU) 0.12 s (wall)
DIIS Errors:  Max 1.42E-05 RMS 2.62E-06

Current DIIS subspace size = 11
REM_GRID_RESTART_DIIS = 0

   11    -152.5695133211      2.62E-06  00000
Finding J and K together
 Job number = 22, Threshold = 1.00E-11
Integral type ranges set in mkLRange.C for JobNum: 22  <1-6|1-6>
 MakeJK  time:  CPU       0.14 s  wall       0.15 s
Fock build time:  0.15 s (CPU) 0.15 s (wall)
DIIS Errors:  Max 4.92E-06 RMS 7.68E-07

Current DIIS subspace size = 12
REM_GRID_RESTART_DIIS = 0

   12    -152.5695133242      7.68E-07  00000
Finding J and K together
 Job number = 22, Threshold = 1.00E-11
Integral type ranges set in mkLRange.C for JobNum: 22  <1-6|1-6>
 MakeJK  time:  CPU       0.18 s  wall       0.18 s
Fock build time:  0.18 s (CPU) 0.19 s (wall)
DIIS Errors:  Max 2.22E-06 RMS 3.38E-07

Current DIIS subspace size = 13
REM_GRID_RESTART_DIIS = 0

   13    -152.5695133245      3.38E-07  00000
Finding J and K together
 Job number = 22, Threshold = 1.00E-11
Integral type ranges set in mkLRange.C for JobNum: 22  <1-6|1-6>
 MakeJK  time:  CPU       0.13 s  wall       0.13 s
Fock build time:  0.13 s (CPU) 0.13 s (wall)
DIIS Errors:  Max 4.20E-07 RMS 7.22E-08

Current DIIS subspace size = 14
REM_GRID_RESTART_DIIS = 0

   14    -152.5695133246      7.22E-08  00000
Finding J and K together
 Job number = 22, Threshold = 1.00E-11
Integral type ranges set in mkLRange.C for JobNum: 22  <1-6|1-6>
 MakeJK  time:  CPU       0.16 s  wall       0.17 s
Fock build time:  0.16 s (CPU) 0.17 s (wall)
DIIS Errors:  Max 1.01E-07 RMS 2.22E-08

Current DIIS subspace size = 15
REM_GRID_RESTART_DIIS = 0

   15    -152.5695133246      2.22E-08  00000
Finding J and K together
 Job number = 22, Threshold = 1.00E-11
Integral type ranges set in mkLRange.C for JobNum: 22  <1-6|1-6>
 MakeJK  time:  CPU       0.18 s  wall       0.19 s
Fock build time:  0.18 s (CPU) 0.19 s (wall)
DIIS Errors:  Max 2.88E-08 RMS 5.74E-09

Current DIIS subspace size = 15
REM_GRID_RESTART_DIIS = 0

   16    -152.5695133246      5.74E-09  00000 Convergence criterion met
 ---------------------------------------
 SCF time:  CPU 2.51 s  wall 2.56 s
 SCF   energy in the final basis set = -152.56951332
 Total energy in the final basis set = -152.56951332
drvman_main.C: 73: calling DrvMan  Calculating analytic gradient of the SCF energy
drvman.C : 218: Calculating analytic gradient of the SCF energy
drvman.C: 244: calling SCF_Grad for normal SCF gradient
 Job number = 111, Threshold = 1.00E-11
Integral type ranges set in mkLRange.C for JobNum: 11  <1-6|7-7>
Finding J and K together
 ML is being used
 Job number = 122, Threshold = 1.00E-11
Integral type ranges set in mkLRange.C for JobNum: 22  <1-6|1-6>
 MakeJK  time:  CPU       0.30 s  wall       0.30 s
 Gradient of SCF Energy
            1           2           3           4           5           6
    1  -0.0146857   0.1518400   0.0148747  -0.0328963   0.1599506  -0.0542025
    2   0.0333936  -0.0943388   0.0496593  -0.0156515  -0.1438661   0.1448388
    3  -0.0606317   0.0112141  -0.0043141   0.0394583   0.0807331  -0.1110194
            7           8           9          10
    1   0.0313543  -0.1285325  -0.0836838  -0.0440189
    2  -0.0579429  -0.0161203   0.0955320   0.0044960
    3   0.0642645  -0.0015164  -0.0048447  -0.0133438
 Max gradient component =       1.600E-01
 RMS gradient           =       7.643E-02
drvman.C: 248: out of SCF_Grad for normal SCF gradient
 Gradient time:  CPU 0.32 s  wall 0.33 s
 ------------------------------------------------------------------------------
                     drvman        : Timing summary (seconds)
 ------------------------------------------------------------------------------
     job step          cpu (% of tot)      sys (% of tot)     wall (% of tot)
 ------------------------------------------------------------------------------
 ------------------------------------------------------------------------------
   Grand Totals     0.3240E+00          0.3000E-05          0.3271E+00
 ------------------------------------------------------------------------------
drvman_main.C: 77: out of DrvMan  Time for this dynamics step: 2.9 s (CPU) 2.9 s (wall)

TIME STEP #5 (t = 80.000 a.u. = 1.93511 fs)
--------------------------------------
 Instantaneous Temperature = 2281.0 K
 ----------------------------------------------------------------
             Standard Nuclear Orientation (Angstroms)
    I     Atom           X                Y                Z
 ----------------------------------------------------------------
    1      C       4.0531033907     2.1398165729     0.8500623888
    2      C       3.2641717743     1.0479867029     0.7339614626
    3      H       3.8289853882     3.2575345341     0.7493428166
    4      H       4.8600198822     1.9184030414     1.5799148658
    5      C       1.6826050682     1.4565072805     0.8601065071
    6      C       0.1757320739     1.0726616372     0.3214221254
    7      H       0.2148103213    -0.0368046543     0.8086282550
    8      H      -1.0972296591     1.2920102960     0.4076245002
    9      H       2.7493841019     0.1513498651     0.5927133458
   10      H       1.4815202680     2.5673025937     0.7594726607
 ----------------------------------------------------------------
 Nuclear Repulsion Energy =    95.5494337546 hartrees
 There are       15 alpha and       15 beta electrons

                       Distance Matrix (Angstroms)
             C (  1)   C (  2)   H (  3)   H (  4)   C (  5)   C (  6)
   C (  2)  1.352030
   H (  3)  1.144407  2.280647
   H (  4)  1.110326  2.004992  1.883124
   C (  5)  2.467038  1.638339  2.804089  3.290507
   C (  6)  4.056142  3.115968  4.278206  4.923579  1.645656
   H (  7)  4.412697  3.237430  4.890649  5.098597  2.094529  1.212358
   H (  8)  5.238364  4.380396  5.314852  6.103725  2.821220  1.294595
   H (  9)  2.391634  1.043511  3.292181  2.924351  1.706737  2.747016
   H ( 10)  2.608446  2.342396  2.446858  3.536730  1.133326  2.032467
             H (  7)   H (  8)   H (  9)
   H (  8)  1.909974
   H (  9)  2.550703  4.016441
   H ( 10)  2.896264  2.898296  2.733517

 Applying Cartesian multipole field
    Component          Value
    ---------          -----
     (2,0,0)        1.00000E-11
     (0,2,0)        2.00000E-11
     (0,0,2)       -3.00000E-10
 Nucleus-field energy     =    -0.0000000051 hartrees
 ENuRep (before)= 95.5494337546
 ENucField = -0.0000000051
 ENuRep (after) = 95.5494337496
 Job number = 2, Threshold = 1.00E-11
Integral type ranges set in mkLRange.C for JobNum: 2  <1-6|1-6>
Symmetry turned off temporarily
Symmetry turned back on
 Job number = 11, Threshold = 1.00E-11
Integral type ranges set in mkLRange.C for JobNum: 11  <1-6|7-7>
 Smallest overlap matrix eigenvalue = 2.01E-01
 Multipole matrices computed through 2nd order
 Guess from superposition of atomic densities
 Warning:  Energy on first SCF cycle will be non-variational
 SAD guess density has 30.000000 electrons
 SCF convergence criterion is 10**(-8)
 A restricted Hartree-Fock SCF calculation will be
 performed using Pulay DIIS extrapolation
 SCF converges when DIIS error is below 1.0E-08
Finding J and K together
 Job number = 22, Threshold = 1.00E-11
Integral type ranges set in mkLRange.C for JobNum: 22  <1-6|1-6>
 MakeJK  time:  CPU       0.13 s  wall       0.14 s
Fock build time:  0.13 s (CPU) 0.14 s (wall)
DIIS Errors:  Max 1.05E+00 RMS 1.71E-01

Current DIIS subspace size = 1
REM_GRID_RESTART_DIIS = 0

 ---------------------------------------
  Cycle       Energy         DIIS Error
 ---------------------------------------
    1    -151.6908103419      1.71E-01  00000
Finding J and K together
 Job number = 22, Threshold = 1.00E-11
Integral type ranges set in mkLRange.C for JobNum: 22  <1-6|1-6>
 MakeJK  time:  CPU       0.18 s  wall       0.19 s
Fock build time:  0.18 s (CPU) 0.19 s (wall)
DIIS Errors:  Max 6.26E-02 RMS 1.33E-02

Current DIIS subspace size = 2
REM_GRID_RESTART_DIIS = 0

    2    -152.5778171649      1.33E-02  00000
Finding J and K together
 Job number = 22, Threshold = 1.00E-11
Integral type ranges set in mkLRange.C for JobNum: 22  <1-6|1-6>
 MakeJK  time:  CPU       0.19 s  wall       0.20 s
Fock build time:  0.20 s (CPU) 0.20 s (wall)
DIIS Errors:  Max 2.56E-02 RMS 4.47E-03

Current DIIS subspace size = 3
REM_GRID_RESTART_DIIS = 0

    3    -152.6128878571      4.47E-03  00000
Finding J and K together
 Job number = 22, Threshold = 1.00E-11
Integral type ranges set in mkLRange.C for JobNum: 22  <1-6|1-6>
 MakeJK  time:  CPU       0.19 s  wall       0.19 s
Fock build time:  0.19 s (CPU) 0.19 s (wall)
DIIS Errors:  Max 1.05E-02 RMS 1.98E-03

Current DIIS subspace size = 4
REM_GRID_RESTART_DIIS = 0

    4    -152.6172202737      1.98E-03  00000
Finding J and K together
 Job number = 22, Threshold = 1.00E-11
Integral type ranges set in mkLRange.C for JobNum: 22  <1-6|1-6>
 MakeJK  time:  CPU       0.19 s  wall       0.19 s
Fock build time:  0.19 s (CPU) 0.19 s (wall)
DIIS Errors:  Max 4.49E-03 RMS 6.88E-04

Current DIIS subspace size = 5
REM_GRID_RESTART_DIIS = 0

    5    -152.6178132771      6.88E-04  00000
Finding J and K together
 Job number = 22, Threshold = 1.00E-11
Integral type ranges set in mkLRange.C for JobNum: 22  <1-6|1-6>
 MakeJK  time:  CPU       0.19 s  wall       0.19 s
Fock build time:  0.19 s (CPU) 0.19 s (wall)
DIIS Errors:  Max 2.20E-03 RMS 2.98E-04

Current DIIS subspace size = 6
REM_GRID_RESTART_DIIS = 0

    6    -152.6179048383      2.98E-04  00000
Finding J and K together
 Job number = 22, Threshold = 1.00E-11
Integral type ranges set in mkLRange.C for JobNum: 22  <1-6|1-6>
 MakeJK  time:  CPU       0.19 s  wall       0.19 s
Fock build time:  0.19 s (CPU) 0.19 s (wall)
DIIS Errors:  Max 7.01E-04 RMS 1.04E-04

Current DIIS subspace size = 7
REM_GRID_RESTART_DIIS = 0

    7    -152.6179345349      1.04E-04  00000
Finding J and K together
 Job number = 22, Threshold = 1.00E-11
Integral type ranges set in mkLRange.C for JobNum: 22  <1-6|1-6>
 MakeJK  time:  CPU       0.19 s  wall       0.19 s
Fock build time:  0.20 s (CPU) 0.19 s (wall)
DIIS Errors:  Max 3.25E-04 RMS 5.44E-05

Current DIIS subspace size = 8
REM_GRID_RESTART_DIIS = 0

    8    -152.6179401164      5.44E-05  00000
Finding J and K together
 Job number = 22, Threshold = 1.00E-11
Integral type ranges set in mkLRange.C for JobNum: 22  <1-6|1-6>
 MakeJK  time:  CPU       0.19 s  wall       0.19 s
Fock build time:  0.19 s (CPU) 0.19 s (wall)
DIIS Errors:  Max 1.25E-04 RMS 2.34E-05

Current DIIS subspace size = 9
REM_GRID_RESTART_DIIS = 0

    9    -152.6179415932      2.34E-05  00000
Finding J and K together
 Job number = 22, Threshold = 1.00E-11
Integral type ranges set in mkLRange.C for JobNum: 22  <1-6|1-6>
 MakeJK  time:  CPU       0.18 s  wall       0.19 s
Fock build time:  0.18 s (CPU) 0.19 s (wall)
DIIS Errors:  Max 4.48E-05 RMS 6.64E-06

Current DIIS subspace size = 10
REM_GRID_RESTART_DIIS = 0

   10    -152.6179419648      6.64E-06  00000
Finding J and K together
 Job number = 22, Threshold = 1.00E-11
Integral type ranges set in mkLRange.C for JobNum: 22  <1-6|1-6>
 MakeJK  time:  CPU       0.19 s  wall       0.19 s
Fock build time:  0.19 s (CPU) 0.19 s (wall)
DIIS Errors:  Max 1.12E-05 RMS 2.04E-06

Current DIIS subspace size = 11
REM_GRID_RESTART_DIIS = 0

   11    -152.6179419935      2.04E-06  00000
Finding J and K together
 Job number = 22, Threshold = 1.00E-11
Integral type ranges set in mkLRange.C for JobNum: 22  <1-6|1-6>
 MakeJK  time:  CPU       0.18 s  wall       0.18 s
Fock build time:  0.18 s (CPU) 0.18 s (wall)
DIIS Errors:  Max 4.28E-06 RMS 6.37E-07

Current DIIS subspace size = 12
REM_GRID_RESTART_DIIS = 0

   12    -152.6179419953      6.37E-07  00000
Finding J and K together
 Job number = 22, Threshold = 1.00E-11
Integral type ranges set in mkLRange.C for JobNum: 22  <1-6|1-6>
 MakeJK  time:  CPU       0.19 s  wall       0.19 s
Fock build time:  0.19 s (CPU) 0.19 s (wall)
DIIS Errors:  Max 1.82E-06 RMS 2.70E-07

Current DIIS subspace size = 13
REM_GRID_RESTART_DIIS = 0

   13    -152.6179419955      2.70E-07  00000
Finding J and K together
 Job number = 22, Threshold = 1.00E-11
Integral type ranges set in mkLRange.C for JobNum: 22  <1-6|1-6>
 MakeJK  time:  CPU       0.19 s  wall       0.19 s
Fock build time:  0.19 s (CPU) 0.19 s (wall)
DIIS Errors:  Max 3.27E-07 RMS 5.51E-08

Current DIIS subspace size = 14
REM_GRID_RESTART_DIIS = 0

   14    -152.6179419955      5.51E-08  00000
Finding J and K together
 Job number = 22, Threshold = 1.00E-11
Integral type ranges set in mkLRange.C for JobNum: 22  <1-6|1-6>
 MakeJK  time:  CPU       0.17 s  wall       0.18 s
Fock build time:  0.18 s (CPU) 0.18 s (wall)
DIIS Errors:  Max 7.15E-08 RMS 1.59E-08

Current DIIS subspace size = 15
REM_GRID_RESTART_DIIS = 0

   15    -152.6179419955      1.59E-08  00000
Finding J and K together
 Job number = 22, Threshold = 1.00E-11
Integral type ranges set in mkLRange.C for JobNum: 22  <1-6|1-6>
 MakeJK  time:  CPU       0.12 s  wall       0.11 s
Fock build time:  0.12 s (CPU) 0.11 s (wall)
DIIS Errors:  Max 1.83E-08 RMS 3.83E-09

Current DIIS subspace size = 15
REM_GRID_RESTART_DIIS = 0

   16    -152.6179419955      3.83E-09  00000 Convergence criterion met
 ---------------------------------------
 SCF time:  CPU 2.93 s  wall 2.96 s
 SCF   energy in the final basis set = -152.61794200
 Total energy in the final basis set = -152.61794200
drvman_main.C: 73: calling DrvMan  Calculating analytic gradient of the SCF energy
drvman.C : 218: Calculating analytic gradient of the SCF energy
drvman.C: 244: calling SCF_Grad for normal SCF gradient
 Job number = 111, Threshold = 1.00E-11
Integral type ranges set in mkLRange.C for JobNum: 11  <1-6|7-7>
Finding J and K together
 ML is being used
 Job number = 122, Threshold = 1.00E-11
Integral type ranges set in mkLRange.C for JobNum: 22  <1-6|1-6>
 MakeJK  time:  CPU       0.34 s  wall       0.34 s
 Gradient of SCF Energy
            1           2           3           4           5           6
    1  -0.0147351   0.1517599   0.0131533  -0.0231662   0.1539968  -0.0685709
    2   0.0401052  -0.1073911   0.0522600  -0.0149975  -0.1346725   0.1283878
    3  -0.0585204   0.0056650  -0.0062730   0.0435349   0.0858909  -0.1096065
            7           8           9          10
    1   0.0238223  -0.1151470  -0.0809875  -0.0401255
    2  -0.0441550  -0.0207131   0.0894587   0.0117175
    3   0.0598983  -0.0028240  -0.0058279  -0.0119372
 Max gradient component =       1.540E-01
 RMS gradient           =       7.397E-02
drvman.C: 248: out of SCF_Grad for normal SCF gradient
 Gradient time:  CPU 0.36 s  wall 0.36 s
 ------------------------------------------------------------------------------
                     drvman        : Timing summary (seconds)
 ------------------------------------------------------------------------------
     job step          cpu (% of tot)      sys (% of tot)     wall (% of tot)
 ------------------------------------------------------------------------------
 ------------------------------------------------------------------------------
   Grand Totals     0.3640E+00          0.3000E-05          0.3601E+00
 ------------------------------------------------------------------------------
drvman_main.C: 77: out of DrvMan  Time for this dynamics step: 3.3 s (CPU) 3.4 s (wall)

TIME STEP #6 (t = 100.000 a.u. = 2.41888 fs)
--------------------------------------
 Instantaneous Temperature = 3294.3 K
 ----------------------------------------------------------------
             Standard Nuclear Orientation (Angstroms)
    I     Atom           X                Y                Z
 ----------------------------------------------------------------
    1      C       4.0515075427     2.1407967545     0.8570455576
    2      C       3.2561670390     1.0461484013     0.7296305815
    3      H       3.8139109529     3.2533011066     0.7456077013
    4      H       4.8945537603     1.9351434590     1.5622647973
    5      C       1.6738736915     1.4627885881     0.8578158489
    6      C       0.1811923626     1.0654192796     0.3250792438
    7      H       0.1831644221    -0.0040420962     0.7923238246
    8      H      -1.0193888116     1.3001135933     0.3909836160
    9      H       2.8141240988     0.1038685963     0.5873903060
   10      H       1.5043859097     2.5830714556     0.7712758902
 ----------------------------------------------------------------
 Nuclear Repulsion Energy =    95.6497957720 hartrees
 There are       15 alpha and       15 beta electrons

                       Distance Matrix (Angstroms)
             C (  1)   C (  2)   H (  3)   H (  4)   C (  5)   C (  6)
   C (  2)  1.359064
   H (  3)  1.143038  2.276589
   H (  4)  1.118192  2.041544  1.890042
   C (  5)  2.472415  1.641241  2.792541  3.330488
   C (  6)  4.052007  3.101532  4.261492  4.950033  1.633955
   H (  7)  4.423641  3.248103  4.877990  5.152712  2.092390  1.167077
   H (  8)  5.161197  4.296459  5.225082  6.062168  2.738258  1.225080
   H (  9)  2.398522  1.050488  3.308101  2.938050  1.794426  2.815265
[...]
    5      C       1.6498613644     1.4513240566     0.6965637979
    6      C       0.7719230311     0.5376332380    -0.1235438555
    7      H       0.5875235648    -0.1468532905    -0.8480426867
    8      H      -0.2724193252     1.1135951747    -0.1075187649
    9      H       4.0084946140     0.5354285073    -0.0818794456
   10      H       1.2752407414     2.4364000985     1.3602956003
 ----------------------------------------------------------------
 Nuclear Repulsion Energy =   100.7824777755 hartrees
 There are       15 alpha and       15 beta electrons

                       Distance Matrix (Angstroms)
             C (  1)   C (  2)   H (  3)   H (  4)   C (  5)   C (  6)
   C (  2)  1.305931
   H (  3)  1.093916  2.325426
   H (  4)  1.082695  1.903710  1.626528
   C (  5)  2.268997  1.409320  2.929514  3.009972
   C (  6)  3.704178  2.592564  4.429426  4.371637  1.509365
   H (  7)  4.538103  3.319278  5.349587  5.128590  2.463441  1.013619
   H (  8)  4.358694  3.442413  4.892039  5.017815  2.110870  1.192745
   H (  9)  2.423626  1.526054  3.505148  2.593287  2.647261  3.236840
   H ( 10)  2.326286  2.147266  2.517008  3.059851  1.245494  2.461793
             H (  7)   H (  8)   H (  9)
   H (  8)  1.696057
   H (  9)  3.571492  4.319856
   H ( 10)  3.467407  2.509889  3.628256

 Applying Cartesian multipole field
    Component          Value
    ---------          -----
     (2,0,0)        1.00000E-11
     (0,2,0)        2.00000E-11
     (0,0,2)       -3.00000E-10
 Nucleus-field energy     =    -0.0000000200 hartrees
 ENuRep (before)= 100.7824777755
 ENucField = -0.0000000200
 ENuRep (after) = 100.7824777555
 Job number = 2, Threshold = 1.00E-11
Integral type ranges set in mkLRange.C for JobNum: 2  <1-6|1-6>
Symmetry turned off temporarily
Symmetry turned back on
 Job number = 11, Threshold = 1.00E-11
Integral type ranges set in mkLRange.C for JobNum: 11  <1-6|7-7>
 Smallest overlap matrix eigenvalue = 1.71E-01
 Multipole matrices computed through 2nd order
 Extrapolating the Fock matrix using 12 points and a 6th-order polynomial
 Alpha Fock matrix extrapolation
 Skip SCF guess (diagonalize extrapolated Fock matrix instead)
 SCF convergence criterion is 10**(-8)
 A restricted Hartree-Fock SCF calculation will be
 performed using Pulay DIIS extrapolation
 SCF converges when DIIS error is below 1.0E-08
Extrapolated Fock matrix used in lieu of Fock build
Fock build time:  0.00 s (CPU) 0.00 s (wall)
DIIS Errors:  Max 8.10E-02 RMS 1.20E-02

Current DIIS subspace size = 1
REM_GRID_RESTART_DIIS = 0

 ---------------------------------------
  Cycle       Energy         DIIS Error
 ---------------------------------------
    1    -305.4243774786      1.20E-02  00000
Finding J and K together
 Job number = 22, Threshold = 1.00E-11
Integral type ranges set in mkLRange.C for JobNum: 22  <1-6|1-6>
 MakeJK  time:  CPU       0.19 s  wall       0.19 s
Fock build time:  0.19 s (CPU) 0.19 s (wall)
DIIS Errors:  Max 2.75E-02 RMS 3.14E-03

Current DIIS subspace size = 2
REM_GRID_RESTART_DIIS = 0

    2    -152.7006026016      3.14E-03  00000
Finding J and K together
 Job number = 22, Threshold = 1.00E-11
Integral type ranges set in mkLRange.C for JobNum: 22  <1-6|1-6>
 MakeJK  time:  CPU       0.18 s  wall       0.18 s
Fock build time:  0.18 s (CPU) 0.18 s (wall)
DIIS Errors:  Max 4.44E-03 RMS 5.41E-04

Current DIIS subspace size = 3
REM_GRID_RESTART_DIIS = 0

    3    -152.7008485790      5.41E-04  00000
Finding J and K together
 Job number = 22, Threshold = 1.00E-11
Integral type ranges set in mkLRange.C for JobNum: 22  <1-6|1-6>
 MakeJK  time:  CPU       0.18 s  wall       0.18 s
Fock build time:  0.18 s (CPU) 0.18 s (wall)
DIIS Errors:  Max 5.41E-04 RMS 8.55E-05

Current DIIS subspace size = 4
REM_GRID_RESTART_DIIS = 0

    4    -152.7008622482      8.55E-05  00000
Finding J and K together
 Job number = 22, Threshold = 1.00E-11
Integral type ranges set in mkLRange.C for JobNum: 22  <1-6|1-6>
 MakeJK  time:  CPU       0.13 s  wall       0.13 s
Fock build time:  0.13 s (CPU) 0.13 s (wall)
DIIS Errors:  Max 2.02E-04 RMS 3.01E-05

Current DIIS subspace size = 5
REM_GRID_RESTART_DIIS = 0

    5    -152.7008631440      3.01E-05  00000
Finding J and K together
 Job number = 22, Threshold = 1.00E-11
Integral type ranges set in mkLRange.C for JobNum: 22  <1-6|1-6>
 MakeJK  time:  CPU       0.16 s  wall       0.16 s
Fock build time:  0.16 s (CPU) 0.16 s (wall)
DIIS Errors:  Max 4.63E-05 RMS 9.96E-06

Current DIIS subspace size = 6
REM_GRID_RESTART_DIIS = 0

    6    -152.7008633217      9.96E-06  00000
Finding J and K together
 Job number = 22, Threshold = 1.00E-11
Integral type ranges set in mkLRange.C for JobNum: 22  <1-6|1-6>
 MakeJK  time:  CPU       0.17 s  wall       0.17 s
Fock build time:  0.17 s (CPU) 0.17 s (wall)
DIIS Errors:  Max 2.00E-05 RMS 3.21E-06

Current DIIS subspace size = 7
REM_GRID_RESTART_DIIS = 0

    7    -152.7008633405      3.21E-06  00000
Finding J and K together
 Job number = 22, Threshold = 1.00E-11
Integral type ranges set in mkLRange.C for JobNum: 22  <1-6|1-6>
 MakeJK  time:  CPU       0.20 s  wall       0.20 s
Fock build time:  0.20 s (CPU) 0.20 s (wall)
DIIS Errors:  Max 8.44E-06 RMS 1.39E-06

Current DIIS subspace size = 8
REM_GRID_RESTART_DIIS = 0

    8    -152.7008633434      1.39E-06  00000
Finding J and K together
 Job number = 22, Threshold = 1.00E-11
Integral type ranges set in mkLRange.C for JobNum: 22  <1-6|1-6>
 MakeJK  time:  CPU       0.14 s  wall       0.15 s
Fock build time:  0.14 s (CPU) 0.15 s (wall)
DIIS Errors:  Max 1.86E-06 RMS 3.04E-07

Current DIIS subspace size = 9
REM_GRID_RESTART_DIIS = 0

    9    -152.7008633439      3.04E-07  00000
Finding J and K together
 Job number = 22, Threshold = 1.00E-11
Integral type ranges set in mkLRange.C for JobNum: 22  <1-6|1-6>
 MakeJK  time:  CPU       0.16 s  wall       0.17 s
Fock build time:  0.16 s (CPU) 0.17 s (wall)
DIIS Errors:  Max 5.84E-07 RMS 9.33E-08

Current DIIS subspace size = 10
REM_GRID_RESTART_DIIS = 0

   10    -152.7008633439      9.33E-08  00000
Finding J and K together
 Job number = 22, Threshold = 1.00E-11
Integral type ranges set in mkLRange.C for JobNum: 22  <1-6|1-6>
 MakeJK  time:  CPU       0.17 s  wall       0.17 s
Fock build time:  0.17 s (CPU) 0.17 s (wall)
DIIS Errors:  Max 2.20E-07 RMS 3.18E-08

Current DIIS subspace size = 11
REM_GRID_RESTART_DIIS = 0

   11    -152.7008633439      3.18E-08  00000
Finding J and K together
 Job number = 22, Threshold = 1.00E-11
Integral type ranges set in mkLRange.C for JobNum: 22  <1-6|1-6>
 MakeJK  time:  CPU       0.18 s  wall       0.19 s
Fock build time:  0.18 s (CPU) 0.19 s (wall)
DIIS Errors:  Max 5.21E-08 RMS 8.51E-09

Current DIIS subspace size = 12
REM_GRID_RESTART_DIIS = 0

   12    -152.7008633439      8.51E-09  00000 Convergence criterion met
 ---------------------------------------
 SCF time:  CPU 1.90 s  wall 1.92 s
 SCF   energy in the final basis set = -152.70086334
 Total energy in the final basis set = -152.70086334
drvman_main.C: 73: calling DrvMan  Calculating analytic gradient of the SCF energy
drvman.C : 218: Calculating analytic gradient of the SCF energy
drvman.C: 244: calling SCF_Grad for normal SCF gradient
 Job number = 111, Threshold = 1.00E-11
Integral type ranges set in mkLRange.C for JobNum: 11  <1-6|7-7>
Finding J and K together
 ML is being used
 Job number = 122, Threshold = 1.00E-11
Integral type ranges set in mkLRange.C for JobNum: 22  <1-6|1-6>
 MakeJK  time:  CPU       0.47 s  wall       0.47 s
 Gradient of SCF Energy
            1           2           3           4           5           6
    1  -0.1007626  -0.0799149   0.0574160  -0.0613005   0.1474475   0.0319854
    2  -0.0995628   0.1101887   0.0260968   0.0261024   0.0944676  -0.2532508
    3   0.0251340   0.0273924   0.0000072  -0.0146177   0.0775057  -0.1596722
            7           8           9          10
    1  -0.0401950  -0.0517348   0.1015314  -0.0044725
    2   0.0664425   0.0426071  -0.1030979   0.0900063
    3   0.0522224  -0.0077179  -0.0594238   0.0591700
 Max gradient component =       2.533E-01
 RMS gradient           =       8.667E-02
drvman.C: 248: out of SCF_Grad for normal SCF gradient
 Gradient time:  CPU 0.49 s  wall 0.49 s
 ------------------------------------------------------------------------------
                     drvman        : Timing summary (seconds)
 ------------------------------------------------------------------------------
     job step          cpu (% of tot)      sys (% of tot)     wall (% of tot)
 ------------------------------------------------------------------------------
 ------------------------------------------------------------------------------
   Grand Totals     0.4880E+00          0.4000E-05          0.4917E+00
 ------------------------------------------------------------------------------
drvman_main.C: 77: out of DrvMan  Time for this dynamics step: 2.4 s (CPU) 2.4 s (wall)

TIME STEP #400 (t = 7980.000 a.u. = 193.02697 fs)
--------------------------------------
 Instantaneous Temperature = 5024.2 K
 ----------------------------------------------------------------
             Standard Nuclear Orientation (Angstroms)
    I     Atom           X                Y                Z
 ----------------------------------------------------------------
    1      C       3.5792990321     2.2252389014     1.5903707613
    2      C       3.0735850050     1.4538810170     0.6879832886
    3      H       3.4835087044     2.9289542849     2.4388975705
    4      H       4.2798803589     2.8986906261     1.0417068832
    5      C       1.6320782538     1.4393500991     0.7001277141
    6      C       0.7734530335     0.5355335890    -0.1213149765
    7      H       0.5916228139    -0.0990528470    -0.8209468310
    8      H      -0.2522509181     1.1476706531    -0.1566496023
    9      H       4.0131394544     0.5750019666    -0.0398073700
   10      H       1.3170274028     2.4482834598     1.3436654111
 ----------------------------------------------------------------
 Nuclear Repulsion Energy =   100.9913951944 hartrees
 There are       15 alpha and       15 beta electrons

                       Distance Matrix (Angstroms)
             C (  1)   C (  2)   H (  3)   H (  4)   C (  5)   C (  6)
   C (  2)  1.290365
   H (  3)  1.106521  2.325850
   H (  4)  1.115968  1.915135  1.608498
   C (  5)  2.280750  1.441631  2.944492  3.042566
   C (  6)  3.695638  2.605558  4.430299  4.385449  1.492947
   H (  7)  4.488095  3.293723  5.306450  5.104820  2.400604  0.961898
   H (  8)  4.346724  3.445048  4.885257  5.004233  2.090416  1.195002
   H (  9)  2.359869  1.478131  3.459130  2.576888  2.638949  3.240952
   H ( 10)  2.286588  2.122322  2.474716  3.012066  1.237475  2.469869
             H (  7)   H (  8)   H (  9)
   H (  8)  1.645519
   H (  9)  3.573696  4.305248
   H ( 10)  3.420626  2.530844  3.562611

 Applying Cartesian multipole field
    Component          Value
    ---------          -----
     (2,0,0)        1.00000E-11
     (0,2,0)        2.00000E-11
     (0,0,2)       -3.00000E-10
 Nucleus-field energy     =    -0.0000000198 hartrees
 ENuRep (before)= 100.9913951944
 ENucField = -0.0000000198
 ENuRep (after) = 100.9913951746
 Job number = 2, Threshold = 1.00E-11
Integral type ranges set in mkLRange.C for JobNum: 2  <1-6|1-6>
Symmetry turned off temporarily
Symmetry turned back on
 Job number = 11, Threshold = 1.00E-11
Integral type ranges set in mkLRange.C for JobNum: 11  <1-6|7-7>
 Smallest overlap matrix eigenvalue = 1.67E-01
 Multipole matrices computed through 2nd order
 Extrapolating the Fock matrix using 12 points and a 6th-order polynomial
 Alpha Fock matrix extrapolation
 Skip SCF guess (diagonalize extrapolated Fock matrix instead)
 SCF convergence criterion is 10**(-8)
 A restricted Hartree-Fock SCF calculation will be
 performed using Pulay DIIS extrapolation
 SCF converges when DIIS error is below 1.0E-08
Extrapolated Fock matrix used in lieu of Fock build
Fock build time:  0.00 s (CPU) 0.00 s (wall)
DIIS Errors:  Max 7.89E-02 RMS 1.18E-02

Current DIIS subspace size = 1
REM_GRID_RESTART_DIIS = 0

 ---------------------------------------
  Cycle       Energy         DIIS Error
 ---------------------------------------
    1    -305.6394080071      1.18E-02  00000
Finding J and K together
 Job number = 22, Threshold = 1.00E-11
Integral type ranges set in mkLRange.C for JobNum: 22  <1-6|1-6>
 MakeJK  time:  CPU       0.18 s  wall       0.18 s
Fock build time:  0.18 s (CPU) 0.18 s (wall)
DIIS Errors:  Max 2.69E-02 RMS 2.86E-03

Current DIIS subspace size = 2
REM_GRID_RESTART_DIIS = 0

    2    -152.6933651900      2.86E-03  00000
Finding J and K together
 Job number = 22, Threshold = 1.00E-11
Integral type ranges set in mkLRange.C for JobNum: 22  <1-6|1-6>
 MakeJK  time:  CPU       0.17 s  wall       0.18 s
Fock build time:  0.17 s (CPU) 0.18 s (wall)
DIIS Errors:  Max 4.10E-03 RMS 4.46E-04

Current DIIS subspace size = 3
REM_GRID_RESTART_DIIS = 0

    3    -152.6935113988      4.46E-04  00000
Finding J and K together
 Job number = 22, Threshold = 1.00E-11
Integral type ranges set in mkLRange.C for JobNum: 22  <1-6|1-6>
 MakeJK  time:  CPU       0.18 s  wall       0.18 s
Fock build time:  0.18 s (CPU) 0.18 s (wall)
DIIS Errors:  Max 2.52E-04 RMS 4.89E-05

Current DIIS subspace size = 4
REM_GRID_RESTART_DIIS = 0

    4    -152.6935172821      4.89E-05  00000
Finding J and K together
 Job number = 22, Threshold = 1.00E-11
Integral type ranges set in mkLRange.C for JobNum: 22  <1-6|1-6>
 MakeJK  time:  CPU       0.12 s  wall       0.13 s
Fock build time:  0.12 s (CPU) 0.13 s (wall)
DIIS Errors:  Max 8.96E-05 RMS 2.18E-05

Current DIIS subspace size = 5
REM_GRID_RESTART_DIIS = 0

    5    -152.6935176006      2.18E-05  00000
Finding J and K together
 Job number = 22, Threshold = 1.00E-11
Integral type ranges set in mkLRange.C for JobNum: 22  <1-6|1-6>
 MakeJK  time:  CPU       0.15 s  wall       0.15 s
Fock build time:  0.15 s (CPU) 0.15 s (wall)
DIIS Errors:  Max 2.47E-05 RMS 4.46E-06

Current DIIS subspace size = 6
REM_GRID_RESTART_DIIS = 0

    6    -152.6935176908      4.46E-06  00000
Finding J and K together
 Job number = 22, Threshold = 1.00E-11
Integral type ranges set in mkLRange.C for JobNum: 22  <1-6|1-6>
 MakeJK  time:  CPU       0.18 s  wall       0.19 s
Fock build time:  0.18 s (CPU) 0.19 s (wall)
DIIS Errors:  Max 1.92E-05 RMS 1.91E-06

Current DIIS subspace size = 7
REM_GRID_RESTART_DIIS = 0

    7    -152.6935176974      1.91E-06  00000
Finding J and K together
 Job number = 22, Threshold = 1.00E-11
Integral type ranges set in mkLRange.C for JobNum: 22  <1-6|1-6>
 MakeJK  time:  CPU       0.18 s  wall       0.18 s
Fock build time:  0.18 s (CPU) 0.18 s (wall)
DIIS Errors:  Max 5.35E-06 RMS 7.73E-07

Current DIIS subspace size = 8
REM_GRID_RESTART_DIIS = 0

    8    -152.6935176987      7.73E-07  00000
Finding J and K together
 Job number = 22, Threshold = 1.00E-11
Integral type ranges set in mkLRange.C for JobNum: 22  <1-6|1-6>
 MakeJK  time:  CPU       0.13 s  wall       0.13 s
Fock build time:  0.13 s (CPU) 0.13 s (wall)
DIIS Errors:  Max 1.34E-06 RMS 2.58E-07

Current DIIS subspace size = 9
REM_GRID_RESTART_DIIS = 0

    9    -152.6935176988      2.58E-07  00000
Finding J and K together
 Job number = 22, Threshold = 1.00E-11
Integral type ranges set in mkLRange.C for JobNum: 22  <1-6|1-6>
 MakeJK  time:  CPU       0.14 s  wall       0.14 s
Fock build time:  0.14 s (CPU) 0.14 s (wall)
DIIS Errors:  Max 4.67E-07 RMS 9.75E-08

Current DIIS subspace size = 10
REM_GRID_RESTART_DIIS = 0

   10    -152.6935176988      9.75E-08  00000
Finding J and K together
 Job number = 22, Threshold = 1.00E-11
Integral type ranges set in mkLRange.C for JobNum: 22  <1-6|1-6>
 MakeJK  time:  CPU       0.16 s  wall       0.16 s
Fock build time:  0.16 s (CPU) 0.16 s (wall)
DIIS Errors:  Max 1.57E-07 RMS 1.90E-08

Current DIIS subspace size = 11
REM_GRID_RESTART_DIIS = 0

   11    -152.6935176988      1.90E-08  00000
Finding J and K together
 Job number = 22, Threshold = 1.00E-11
Integral type ranges set in mkLRange.C for JobNum: 22  <1-6|1-6>
 MakeJK  time:  CPU       0.18 s  wall       0.18 s
Fock build time:  0.18 s (CPU) 0.18 s (wall)
DIIS Errors:  Max 5.20E-08 RMS 5.98E-09

Current DIIS subspace size = 12
REM_GRID_RESTART_DIIS = 0

   12    -152.6935176988      5.98E-09  00000 Convergence criterion met
 ---------------------------------------
 SCF time:  CPU 1.78 s  wall 1.81 s
 SCF   energy in the final basis set = -152.69351770
 Total energy in the final basis set = -152.69351770
drvman_main.C: 73: calling DrvMan  Calculating analytic gradient of the SCF energy
drvman.C : 218: Calculating analytic gradient of the SCF energy
drvman.C: 244: calling SCF_Grad for normal SCF gradient
 Job number = 111, Threshold = 1.00E-11
Integral type ranges set in mkLRange.C for JobNum: 11  <1-6|7-7>
Finding J and K together
 ML is being used
 Job number = 122, Threshold = 1.00E-11
Integral type ranges set in mkLRange.C for JobNum: 22  <1-6|1-6>
 MakeJK  time:  CPU       0.46 s  wall       0.52 s
 Gradient of SCF Energy
            1           2           3           4           5           6
    1  -0.1236867  -0.0463493   0.0603016  -0.0509305   0.1042920   0.0250797
    2  -0.1491239   0.1326425   0.0366804   0.0449085   0.0902471  -0.3096346
    3   0.0131079   0.0383585   0.0023992  -0.0227258   0.0791293  -0.2041389
            7           8           9          10
    1  -0.0300423  -0.0486214   0.1024856   0.0074714
    2   0.1197713   0.0455958  -0.1009444   0.0898573
    3   0.1052926  -0.0142989  -0.0531199   0.0559959
 Max gradient component =       3.096E-01
 RMS gradient           =       9.971E-02
drvman.C: 248: out of SCF_Grad for normal SCF gradient
 Gradient time:  CPU 0.48 s  wall 0.54 s
 ------------------------------------------------------------------------------
                     drvman        : Timing summary (seconds)
 ------------------------------------------------------------------------------
     job step          cpu (% of tot)      sys (% of tot)     wall (% of tot)
 ------------------------------------------------------------------------------
 ------------------------------------------------------------------------------
   Grand Totals     0.4840E+00          0.2000E-05          0.5443E+00
 ------------------------------------------------------------------------------
drvman_main.C: 77: out of DrvMan  Time for this dynamics step: 2.3 s (CPU) 2.4 s (wall)

=============== TIME STEPS COMPLETED ==================

Step-to-Step energy fluctuations, |E(n) - E(n-1)|
Mean: -3.205e-06   Max: 1.863e-03   RMS: 4.666e-04
Overall energy fluctuations, |E(n) - E(0)|
Mean: -1.151e-03   Max: 3.254e-03   RMS: 6.613e-04   RMS(dE)/RMS(dV): 9.878e-03
Kinetic energy fluctuations, |T(n) - V(0)|
Mean: 2.426e-01   Max: 3.865e-01   RMS: 6.652e-02
Potential energy fluctuations, |V(n) - V(0)|
Mean: -2.438e-01   Max: 3.889e-01   RMS: 6.695e-02


 JobOver = TRUE
Archival summary:
1\1\qciep03\JobtypUnspecified\HF\STO-3G\46\jcartus\MonJun1812:26:082018MonJun1812:26:082018\0\\#,JobtypUnspecified,HF,STO-3G,\\0,1\C\C,1,1.29037\H,2,1.10652,1,151.948\H,2,1.11597,1,105.246,3,-128.047,0\C,1,1.44163,2,113.08,3,0.990214,0\H,5,1.23747,1,104.521,2,17.4529,0\H,1,1.47813,2,116.785,3,-169.686,0\C,5,1.49295,1,125.207,2,-172.995,0\H,8,0.961898,5,155.272,1,-12.1491,0\H,8,1.195,5,101.525,1,-157.128,0\\HF=-152.693518\\@

 Total job time:  1048.75s(wall), 1009.54s(cpu) 
 Mon Jun 18 12:26:08 2018

        *************************************************************
        *                                                           *
        *  Thank you very much for using Q-Chem.  Have a nice day.  *
        *                                                           *
        *************************************************************


*** MISSION COMPLETED -- STARFLEET OUT ***

0 sent ACK to 0 
now end server 0 ... 
