Process 0 of 1 is on qciep03 - thread support 0
initial socket setup ...start
initial socket setup ...done 
now start server 0 ... 
qciep03.tugraz.at 127.0.1
Q-Chem Developer Version! Running on 127.0.1.*
                  Welcome to Q-Chem
     A Quantum Leap Into The Future Of Chemistry


 Q-Chem 5.0, Q-Chem, Inc., Pleasanton, CA (2017)

 Yihan Shao,  Zhengting Gan,  E. Epifanovsky,  A. T. B. Gilbert,  M. Wormit,  
 J. Kussmann,  A. W. Lange,  A. Behn,  Jia Deng,  Xintian Feng,  D. Ghosh,  
 M. Goldey,  P. R. Horn,  L. D. Jacobson,  I. Kaliman,  T. Kus,  A. Landau,  
 Jie Liu,  E. I. Proynov,  R. M. Richard,  R. P. Steele,  E. J. Sundstrom,  
 H. L. Woodcock III,  P. M. Zimmerman,  D. Zuev,  B. Albrecht,  E. Alguire,  
 S. A. Baeppler,  D. Barton,  Z. Benda,  Y. A. Bernard,  E. J. Berquist,  
 K. B. Bravaya,  H. Burton,  D. Casanova,  Chun-Min Chang,  Yunqing Chen,  
 A. Chien,  K. D. Closser,  M. P. Coons,  S. Dasgupta,  A. L. Dempwolff,  
 M. Diedenhofen,  Hainam Do,  R. G. Edgar,  Po-Tung Fang,  S. Fatehi,  
 Qingguo Feng,  J. Fosso-Tande,  Qinghui Ge,  A. Ghysels,  G. Gidofalvi,  
 J. Gomes,  J. Gonthier,  A. Gunina,  M. W. D. Hanson-Heine,  
 P. H. P. Harbach,  A. W. Hauser,  J. E. Herr,  E. G. Hohenstein,  
 Z. C. Holden,  Kerwin Hui,  T.-C. Jagau,  Hyunjun Ji,  B. Kaduk,  
 K. Khistyaev,  Jaehoon Kim,  P. Klunzinger,  K. Koh,  D. Kosenkov,  
 L. Koulias,  T. Kowalczyk,  C. M. Krauter,  A. Kunitsa,  Ka Un Lao,  
 A. Laurent,  K. V. Lawler,  Joonho Lee,  D. Lefrancois,  S. Lehtola,  
 D. S. Levine,  Yi-Pei Li,  You-Sheng Lin,  Fenglai Liu,  E. Livshits,  
 A. Luenser,  P. Manohar,  E. Mansoor,  S. F. Manzer,  Shan-Ping Mao,  
 Yuezhi Mao,  N. Mardirossian,  A. V. Marenich,  T. Markovich,  
 L. A. Martinez-Martinez,  S. A. Maurer,  N. J. Mayhall,  S. C. McKenzie,  
 J.-M. Mewes,  A. F. Morrison,  J. W. Mullinax,  K. Nanda,  
 T. S. Nguyen-Beck,  R. Olivares-Amaya,  J. A. Parkhill,  T. M. Perrine,  
 F. Plasser,  S. Prager,  A. Prociuk,  E. Ramos,  D. R. Rehn,  F. Rob,  
 M. Schneider,  N. Sergueev,  S. M. Sharada,  S. Sharma,  D. W. Small,  
 T. Stauch,  T. Stein,  Yu-Chuan Su,  A. J. W. Thom,  A. Tkatchenko,  
 T. Tsuchimochi,  L. Vogt,  O. Vydrov,  M. A. Watson,  J. Wenzel,  
 M. de Wergifosse,  T. A. Wesolowski,  A. White,  J. Witte,  A. Yamada,  
 Jun Yang,  K. Yao,  S. Yeganeh,  S. R. Yost,  Zhi-Qiang You,  A. Zech,  
 Igor Ying Zhang,  Xing Zhang,  Yan Zhao,  Ying Zhu,  B. R. Brooks,  
 G. K. L. Chan,  C. J. Cramer,  M. S. Gordon,  W. J. Hehre,  A. Klamt,  
 M. W. Schmidt,  C. D. Sherrill,  D. G. Truhlar,  A. Aspuru-Guzik,  R. Baer,  
 A. T. Bell,  N. A. Besley,  Jeng-Da Chai,  R. A. DiStasio Jr.,  A. Dreuw,  
 B. D. Dunietz,  T. R. Furlani,  Chao-Ping Hsu,  Yousung Jung,  Jing Kong,  
 D. S. Lambrecht,  WanZhen Liang,  C. Ochsenfeld,  V. A. Rassolov,  
 L. V. Slipchenko,  J. E. Subotnik,  T. Van Voorhis,  J. M. Herbert,  
 A. I. Krylov,  P. M. W. Gill,  M. Head-Gordon

 Contributors to earlier versions of Q-Chem not listed above: 
 R. D. Adamson,  B. Austin,  J. Baker,  G. J. O. Beran,  K. Brandhorst,  
 S. T. Brown,  E. F. C. Byrd,  A. K. Chakraborty,  C.-L. Cheng,  
 Siu Hung Chien,  D. M. Chipman,  D. L. Crittenden,  H. Dachsel,  
 R. J. Doerksen,  A. D. Dutoi,  L. Fusti-Molnar,  W. A. Goddard III,  
 A. Golubeva-Zadorozhnaya,  S. R. Gwaltney,  G. Hawkins,  A. Heyden,  
 S. Hirata,  G. Kedziora,  F. J. Keil,  C. Kelley,  Jihan Kim,  R. A. King,  
 R. Z. Khaliullin,  P. P. Korambath,  W. Kurlancheek,  A. M. Lee,  M. S. Lee,  
 S. V. Levchenko,  Ching Yeh Lin,  D. Liotard,  R. C. Lochan,  I. Lotan,  
 P. E. Maslen,  N. Nair,  D. P. O'Neill,  D. Neuhauser,  E. Neuscamman,  
 C. M. Oana,  R. Olson,  B. Peters,  R. Peverati,  P. A. Pieniazek,  
 Y. M. Rhee,  J. Ritchie,  M. A. Rohrdanz,  E. Rosta,  N. J. Russ,  
 H. F. Schaefer III,  N. E. Schultz,  N. Shenvi,  A. C. Simmonett,  A. Sodt,  
 D. Stuck,  K. S. Thanthiriwatte,  V. Vanovschi,  Tao Wang,  A. Warshel,  
 C. F. Williams,  Q. Wu,  X. Xu,  W. Zhang

 Please cite Q-Chem as follows:
 Y. Shao et al., Mol. Phys. 113, 184-215 (2015)
 DOI: 10.1080/00268976.2014.952696

 Q-Chem 5.0.2 for Intel X86 EM64T Linux

 Parts of Q-Chem use Armadillo 5.200.1 (Boston Tea Smuggler).
 http://arma.sourceforge.net/

 Q-Chem begins on Mon Jun 18 12:05:32 2018  


Host: 0

     Scratch files written to /home/jcartus/scratch/Butadien_8.mol.dir//
 Using version located at /usr/local/qchem/bin/qchem

 Parallel job on  1  processors
Symmetry disabled for AIMD jobs.

Total Memory Limit in MB = 2000
Mega-Array Size in MB = 192

Checking the input file for inconsistencies... 	...done.
Finally everything over in PARseQInput

--------------------------------------------------------------
User input:
--------------------------------------------------------------
$rem
AIMD_STEPS                    400
FOCK_EXTRAP_POINTS            12
MAX_SCF_CYCLES                100
BASIS                         sto-3g
AIMD_INIT_VELOC               thermal
FOCK_EXTRAP_ORDER             6
AIMD_TEMP                     400
AIMD_METHOD                   bomd
TIME_STEP                     20
METHOD                        hf
JOBTYPE                       aimd
$end

$molecule
0 1
C    5.34812    0.62518    0.04165
C    4.06932    0.29816    -0.17576
H    5.97710    0.00015    0.66777
H    5.79997    1.51237    -0.39032
C    3.18693    1.08902    -0.99708
C    1.90582    0.76670    -1.20900
H    1.45135    -0.11616    -0.77094
H    1.27738    1.39215    -1.83522
H    3.66785    -0.60291    0.28332
H    3.59033    1.98669    -1.46115
$end


--------------------------------------------------------------
 ----------------------------------------------------------------
             Standard Nuclear Orientation (Angstroms)
    I     Atom           X                Y                Z
 ----------------------------------------------------------------
    1      C       5.3481200000     0.6251800000     0.0416500000
    2      C       4.0693200000     0.2981600000    -0.1757600000
    3      H       5.9771000000     0.0001500000     0.6677700000
    4      H       5.7999700000     1.5123700000    -0.3903200000
    5      C       3.1869300000     1.0890200000    -0.9970800000
    6      C       1.9058200000     0.7667000000    -1.2090000000
    7      H       1.4513500000    -0.1161600000    -0.7709400000
    8      H       1.2773800000     1.3921500000    -1.8352200000
    9      H       3.6678500000    -0.6029100000     0.2833200000
   10      H       3.5903300000     1.9866900000    -1.4611500000
 ----------------------------------------------------------------
 Nuclear Repulsion Energy =   104.1575636818 hartrees
 There are       15 alpha and       15 beta electrons
 Requested basis set is STO-3G
 There are 14 shells and 26 basis functions

 Total QAlloc Memory Limit   2000 MB
 Mega-Array Size       188 MB
 MEM_STATIC part       192 MB

finished with qalloc call

                       Distance Matrix (Angstroms)
             C (  1)   C (  2)   H (  3)   H (  4)   C (  5)   C (  6)
   C (  2)  1.337736
   H (  3)  1.085497  2.107125
   H (  4)  1.085298  2.124969  1.854114
   C (  5)  2.442304  1.441748  3.426720  2.715762
   C (  6)  3.665185  2.442918  4.548097  4.048539  1.337925
   H (  7)  4.049037  2.716554  4.750350  4.659128  2.125050  1.085302
   H (  8)  4.547726  3.427178  5.503634  4.749317  2.107308  1.085484
   H (  9)  2.095213  1.088053  2.417461  3.078008  2.175623  2.684697
   H ( 10)  2.683644  2.175498  3.765012  2.500833  1.088074  2.095120
             H (  7)   H (  8)   H (  9)
   H (  8)  1.854173
   H (  9)  2.502251  3.766009
   H ( 10)  3.077922  2.417260  3.123334

 Job number = 2, Threshold = 1.00E-11
Integral type ranges set in mkLRange.C for JobNum: 2  <1-6|1-6>
Symmetry turned off temporarily
 Using the largest function pair in Schwarz integrals
Total number of integrals generated =            3252
Symmetry turned back on
 A cutoff of  1.0D-11 yielded    102 shell pairs
 There are       372 function pairs
 Job number = 11, Threshold = 1.00E-11
Integral type ranges set in mkLRange.C for JobNum: 11  <1-6|7-7>
Total number of integrals generated =            3720
 Smallest overlap matrix eigenvalue = 1.84E-01
 Multipole matrices computed through 2nd order

 Scale SEOQF with 1.000000e-02/1.000000e-01/1.000000e-01

 Standard Electronic Orientation quadrupole field applied
 Nucleus-field energy     =     0.0000000009 hartrees
 ENuRep (before)= 104.1575636818
 ENucField = 0.0000000009
 ENuRep (after) = 104.1575636827
 Guess from superposition of atomic densities
 Warning:  Energy on first SCF cycle will be non-variational
 SAD guess density has 30.000000 electrons

 ==================================================
    GEN_SCFMAN: A general SCF calculation manager  
                                                   
    Authors:                                       
        -- Eric Jon Sundstrom 2008-2014            
        -- Paul Horn 2010-2015                     
        -- Yuezhi Mao 2012-                        
        -- Dmitri Zuev 2014                        
        -- Alec White 2015-                        
        -- David Stuck 2015                        
        -- Shaama M.S. 2015                        
        -- Shane Yost 2015-                         
        -- Joonho Lee 2016-                        
        -- David Small 2016-                       
        -- Daniel Levine 2016-                     
        -- Susi Lehtola 2017-                      
        -- Hugh Burton 2017-                       
 ==================================================
 Hartree-Fock
Finding J and K together
 Job number = 22, Threshold = 1.00E-11
Integral type ranges set in mkLRange.C for JobNum: 22  <1-6|1-6>
 MakeJK  time:  CPU       0.15 s  wall       0.15 s
 A restricted SCF calculation will be
 performed using DIIS
 SCF converges when DIIS error is below 1.0e-08
 ---------------------------------------
  Cycle       Energy         DIIS error
 ---------------------------------------
Finding J and K together
 Job number = 22, Threshold = 1.00E-11
Integral type ranges set in mkLRange.C for JobNum: 22  <1-6|1-6>
 MakeJK  time:  CPU       0.12 s  wall       0.12 s
    1    -152.6466966609      2.15e-01  
Finding J and K together
 Job number = 22, Threshold = 1.00E-11
Integral type ranges set in mkLRange.C for JobNum: 22  <1-6|1-6>
 MakeJK  time:  CPU       0.11 s  wall       0.11 s
    2    -152.9904356793      1.29e-02  
Finding J and K together
 Job number = 22, Threshold = 1.00E-11
Integral type ranges set in mkLRange.C for JobNum: 22  <1-6|1-6>
 MakeJK  time:  CPU       0.12 s  wall       0.12 s
    3    -153.0145663754      3.50e-03  
Finding J and K together
 Job number = 22, Threshold = 1.00E-11
Integral type ranges set in mkLRange.C for JobNum: 22  <1-6|1-6>
 MakeJK  time:  CPU       0.13 s  wall       0.13 s
    4    -153.0163560317      1.28e-03  
Finding J and K together
 Job number = 22, Threshold = 1.00E-11
Integral type ranges set in mkLRange.C for JobNum: 22  <1-6|1-6>
 MakeJK  time:  CPU       0.13 s  wall       0.13 s
    5    -153.0165270557      9.61e-05  
Finding J and K together
 Job number = 22, Threshold = 1.00E-11
Integral type ranges set in mkLRange.C for JobNum: 22  <1-6|1-6>
 MakeJK  time:  CPU       0.13 s  wall       0.13 s
    6    -153.0165302491      1.29e-05  
Finding J and K together
 Job number = 22, Threshold = 1.00E-11
Integral type ranges set in mkLRange.C for JobNum: 22  <1-6|1-6>
 MakeJK  time:  CPU       0.14 s  wall       0.14 s
    7    -153.0165303091      1.48e-06  
Finding J and K together
 Job number = 22, Threshold = 1.00E-11
Integral type ranges set in mkLRange.C for JobNum: 22  <1-6|1-6>
 MakeJK  time:  CPU       0.13 s  wall       0.13 s
    8    -153.0165303096      1.05e-07  
Finding J and K together
 Job number = 22, Threshold = 1.00E-11
Integral type ranges set in mkLRange.C for JobNum: 22  <1-6|1-6>
 MakeJK  time:  CPU       0.13 s  wall       0.13 s
    9    -153.0165303096      3.20e-08  
Finding J and K together
 Job number = 22, Threshold = 1.00E-11
Integral type ranges set in mkLRange.C for JobNum: 22  <1-6|1-6>
 MakeJK  time:  CPU       0.12 s  wall       0.14 s
   10    -153.0165303096      1.40e-08  
   11    -153.0165303096      3.67e-09  Convergence criterion met
 ---------------------------------------
 SCF time:   CPU 1.43s  wall 1.00s 
 Total energy in the final basis set =     -153.0165303096
Wall  1 = 1
Clock 1 = 1.4358090162
 ==================================================
                  Done GEN_SCFMAN                  
 ==================================================

Symmetry turned off temporarily

 --------------------------------------------------------------

                    Orbital Energies (a.u.)
 --------------------------------------------------------------

 Alpha MOs
 -- Occupied --
-11.031 -11.030 -11.016 -11.016  -1.036  -0.942  -0.772  -0.708
 -0.591  -0.591  -0.498  -0.491  -0.443  -0.399  -0.261
 -- Virtual --
  0.243   0.421   0.593   0.674   0.684   0.697   0.699   0.880
  0.910   1.025   1.078
 --------------------------------------------------------------

          Ground-State Mulliken Net Atomic Charges

     Atom                 Charge (a.u.)
  ----------------------------------------
      1 C                    -0.124577
      2 C                    -0.059608
      3 H                     0.060918
      4 H                     0.060788
      5 C                    -0.059562
      6 C                    -0.124608
      7 H                     0.060758
      8 H                     0.060923
      9 H                     0.062507
     10 H                     0.062459
  ----------------------------------------
  Sum of atomic charges =    -0.000000

 -----------------------------------------------------------------
                    Cartesian Multipole Moments
 -----------------------------------------------------------------
    Charge (ESU x 10^10)
                -0.0000
    Dipole Moment (Debye)
         X       0.0003      Y       0.0003      Z       0.0007
       Tot       0.0008
    Quadrupole Moments (Debye-Ang)
        XX     -22.8066     XY       0.5333     YY     -22.9515
        XZ       0.4373     YZ      -1.2822     ZZ     -24.1576
    Octopole Moments (Debye-Ang^2)
       XXX    -248.2186    XXY     -11.9774    XYY     -82.5088
       YYY     -47.8513    XXZ      16.5198    XYZ      -4.6541
       YYZ      11.6452    XZZ     -88.1372    YZZ     -15.2810
       ZZZ      42.3849
    Hexadecapole Moments (Debye-Ang^3)
      XXXX   -2089.9979   XXXY    -143.0057   XXYY    -362.9239
      XYYY    -163.1520   YYYY    -118.7953   XXXZ     115.7802
      XXYZ      -6.8986   XYYZ      25.3439   YYYZ      38.3408
      XXZZ    -388.7081   XYZZ     -55.1886   YYZZ     -37.3156
      XZZZ     102.7717   YZZZ      40.7951   ZZZZ    -124.2209
 -----------------------------------------------------------------
drvman_main.C: 73: calling DrvMan  Calculating analytic gradient of the SCF energy
drvman.C : 218: Calculating analytic gradient of the SCF energy
drvman.C: 244: calling SCF_Grad for normal SCF gradient
 Job number = 111, Threshold = 1.00E-11
Integral type ranges set in mkLRange.C for JobNum: 11  <1-6|7-7>
Finding J and K together
 ML is being used
 Job number = 122, Threshold = 1.00E-11
Integral type ranges set in mkLRange.C for JobNum: 22  <1-6|1-6>
Total number of integrals generated =           70483
 MakeJK  time:  CPU       0.47 s  wall       0.49 s
 Gradient of SCF Energy
            1           2           3           4           5           6
    1   0.0295164  -0.0613927  -0.0004851   0.0011188   0.0617402  -0.0298580
    2   0.0131856   0.0073932  -0.0043361   0.0032341  -0.0075186  -0.0130792
    3   0.0012354  -0.0256218   0.0027014  -0.0016874   0.0256497  -0.0012873
            7           8           9          10
    1  -0.0011380   0.0004898   0.0007526  -0.0007439
    2  -0.0031664   0.0043173  -0.0038866   0.0038566
    3   0.0018018  -0.0027131   0.0027811  -0.0028597
 Max gradient component =       6.174E-02
 RMS gradient           =       1.936E-02
drvman.C: 248: out of SCF_Grad for normal SCF gradient
 Gradient time:  CPU 0.49 s  wall 0.51 s
 ------------------------------------------------------------------------------
                     drvman        : Timing summary (seconds)
 ------------------------------------------------------------------------------
     job step          cpu (% of tot)      sys (% of tot)     wall (% of tot)
 ------------------------------------------------------------------------------
 ------------------------------------------------------------------------------
   Grand Totals     0.4880E+00          0.1000E-05          0.5114E+00
 ------------------------------------------------------------------------------
drvman_main.C: 77: out of DrvMan =======================================================
            AB INITIO MOLECULAR DYNAMICS
=======================================================
Created directory /home/jcartus/scratch/Butadien_8.mol.dir/AIMD
AIMD will take 400 BOMD steps Velocity Verlet integration
Time step = 20.00000 a.u. ( = 0.48378 fs)
Total simulation time requested = 193.511 fs
Integral threshold = 10**(-11)
SCF convergence threshold = 10**(-8)
Generating viewable xyz trajectory,
 file (in Angstroms) at AIMD/View.xyz
Choosing nuclear velocities from Maxwell-Boltzmann
Velocities sampled from Maxwell-Boltzmann at T = 400.0 K
sqrt(kT/m) and (vx,vy,vz) for each atom:
  1   2.4064e-04   3.64e-04   7.43e-06   1.29e-04 
  2   2.4064e-04   1.10e-05   1.67e-04   1.58e-04 
  3   8.3036e-04   1.58e-03  -2.19e-03  -1.26e-03 
  4   8.3036e-04  -1.19e-03   5.00e-04  -1.64e-03 
  5   2.4064e-04  -4.45e-06  -1.97e-04   2.76e-06 
  6   2.4064e-04  -1.89e-04   3.68e-04  -2.22e-04 
  7   8.3036e-04  -1.07e-03  -8.57e-05   1.80e-04 
  8   8.3036e-04   9.96e-04  -1.51e-04   2.82e-05 
  9   8.3036e-04   2.58e-04   1.07e-03  -2.07e-04 
 10   8.3036e-04  -4.15e-04  -1.15e-03   1.47e-04 
T(nuclear) = 0.02180230 a.u.
v(c.o.m.) = (  4.3237e-05,   3.9248e-05,  -3.6300e-05)
T(c.o.m.) = 2.32879e-04 a.u.
kT/2 = 0.000633 a.u.
Tx   = 0.007635 a.u.
Ty   = 0.009159 a.u.
Tz   = 0.005008 a.u.
Mean velocities (a.u.):   3.4261e-05  -1.6648e-04  -2.6850e-04
Removing c.o.m. velocity
T(nuclear) = 0.02213111 a.u.
v(c.o.m.) = (  0.0000e+00,   1.8030e-20,   2.2538e-21)
T(c.o.m.) = 1.62642e-35 a.u.
kT   = 0.001267 a.u. = 0.79 kcal/mol
Tx   = 0.007802 a.u. = 4.90 kcal/mol
Ty   = 0.010060 a.u. = 6.31 kcal/mol
Tz   = 0.004269 a.u. = 2.68 kcal/mol
Initial velocities in m/s
  1      7.5354e+02     -2.2408e+01      3.1760e+02 
  2     -1.8528e+01      3.2642e+02      3.8119e+02 
  3      2.9584e+03     -5.2617e+03     -2.3397e+03 
  4     -3.1200e+03      6.3306e+02     -3.1532e+03 
  5     -5.2345e+01     -4.6992e+02      4.1796e+01 
  6     -4.5671e+02      7.6731e+02     -4.4941e+02 
  7     -2.8429e+03     -6.4798e+02      8.1939e+02 
  8      1.6717e+03     -7.9181e+02      4.8751e+02 
  9      5.7701e+01      1.8799e+03     -2.7345e+01 
 10     -1.4153e+03     -2.9723e+03      7.4641e+02 
----------------------------------------------------------------------------
       Nuclear coordinates (Angst) and velocities (a.u.)
----------------------------------------------------------------------------
             x        y        z            v_x         v_y        v_z
----------------------------------------------------------------------------
1      C    5.3481   0.6252   0.0416     3.4444e-04  -1.0243e-05   1.4518e-04
2      C    4.0693   0.2982  -0.1758    -8.4691e-06   1.4921e-04   1.7424e-04
3      H    5.9771   0.0001   0.6678     1.3523e-03  -2.4051e-03  -1.0695e-03
4      H    5.8000   1.5124  -0.3903    -1.4262e-03   2.8937e-04  -1.4413e-03
5      C    3.1869   1.0890  -0.9971    -2.3927e-05  -2.1480e-04   1.9105e-05
6      C    1.9058   0.7667  -1.2090    -2.0877e-04   3.5074e-04  -2.0543e-04
7      H    1.4513  -0.1162  -0.7709    -1.2995e-03  -2.9619e-04   3.7454e-04
8      H    1.2774   1.3921  -1.8352     7.6414e-04  -3.6194e-04   2.2284e-04
9      H    3.6679  -0.6029   0.2833     2.6375e-05   8.5931e-04  -1.2499e-05
10     H    3.5903   1.9867  -1.4611    -6.4692e-04  -1.3586e-03   3.4119e-04
----------------------------------------------------------------------------
Write nuclear velocities every 1 time steps

TIME STEP #1 (t = 0.000 a.u. = 0.00000 fs)
--------------------------------------
 Instantaneous Temperature = 465.9 K
 ----------------------------------------------------------------
             Standard Nuclear Orientation (Angstroms)
    I     Atom           X                Y                Z
 ----------------------------------------------------------------
    1      C       5.3516226228     0.6250077981     0.0431805017
    2      C       4.0695274010     0.2997033956    -0.1737919283
    3      H       5.9914401979    -0.0250552102     0.6562954491
    4      H       5.7848116938     1.5152462928    -0.4054771871
    5      C       3.1863780525     1.0867830229    -0.9970018992
    6      C       1.9037549828     0.7704753433    -1.2111679297
    7      H       1.4376622405    -0.1191123472    -0.7670798017
    8      H       1.2854391079     1.3880707184    -1.8327052603
    9      H       3.6680857912    -0.5935915168     0.2830274966
   10      H       3.5835261645     1.9720886020    -1.4573742933
 ----------------------------------------------------------------
 Nuclear Repulsion Energy =   104.1387646198 hartrees
 There are       15 alpha and       15 beta electrons

                       Distance Matrix (Angstroms)
             C (  1)   C (  2)   H (  3)   H (  4)   C (  5)   C (  6)
   C (  2)  1.340399
   H (  3)  1.099026  2.118552
   H (  4)  1.086955  2.115047  1.882176
   C (  5)  2.446119  1.441222  3.440632  2.699137
   C (  6)  3.671831  2.447110  4.563930  4.033165  1.338297
   H (  7)  4.065627  2.730222  4.771974  4.658282  2.136599  1.098100
   H (  8)  4.542583  3.418726  5.508039  4.722024  2.098271  1.072403
   H (  9)  2.092082  1.080655  2.420855  3.066230  2.166605  2.684429
   H ( 10)  2.681876  2.163482  3.775478  2.482106  1.073981  2.079933
             H (  7)   H (  8)   H (  9)
   H (  8)  1.852115
   H (  9)  2.510507  3.752375
   H ( 10)  3.074794  2.400657  3.101429

 Applying Cartesian multipole field
    Component          Value
    ---------          -----
     (2,0,0)        1.00000E-12
     (0,2,0)        2.00000E-11
     (0,0,2)       -3.00000E-11
 Nucleus-field energy     =     0.0000000009 hartrees
 ENuRep (before)= 104.1387646198
 ENucField = 0.0000000009
 ENuRep (after) = 104.1387646207
 Job number = 2, Threshold = 1.00E-11
Integral type ranges set in mkLRange.C for JobNum: 2  <1-6|1-6>
Symmetry turned off temporarily
Symmetry turned back on
 Job number = 11, Threshold = 1.00E-11
Integral type ranges set in mkLRange.C for JobNum: 11  <1-6|7-7>
 Smallest overlap matrix eigenvalue = 1.84E-01
 Multipole matrices computed through 2nd order
 Guess from superposition of atomic densities
 Warning:  Energy on first SCF cycle will be non-variational
 SAD guess density has 30.000000 electrons
 SCF convergence criterion is 10**(-8)
 A restricted Hartree-Fock SCF calculation will be
 performed using Pulay DIIS extrapolation
 SCF converges when DIIS error is below 1.0E-08
Finding J and K together
 Job number = 22, Threshold = 1.00E-11
Integral type ranges set in mkLRange.C for JobNum: 22  <1-6|1-6>
 MakeJK  time:  CPU       0.14 s  wall       0.14 s
Fock build time:  0.14 s (CPU) 0.14 s (wall)
DIIS Errors:  Max 1.09E+00 RMS 2.15E-01

Current DIIS subspace size = 1
REM_GRID_RESTART_DIIS = 0

 ---------------------------------------
  Cycle       Energy         DIIS Error
 ---------------------------------------
    1    -152.6476777331      2.15E-01  00000
Finding J and K together
 Job number = 22, Threshold = 1.00E-11
Integral type ranges set in mkLRange.C for JobNum: 22  <1-6|1-6>
 MakeJK  time:  CPU       0.14 s  wall       0.14 s
Fock build time:  0.14 s (CPU) 0.14 s (wall)
DIIS Errors:  Max 6.93E-02 RMS 1.29E-02

Current DIIS subspace size = 2
REM_GRID_RESTART_DIIS = 0

    2    -152.9895930594      1.29E-02  00000
Finding J and K together
 Job number = 22, Threshold = 1.00E-11
Integral type ranges set in mkLRange.C for JobNum: 22  <1-6|1-6>
 MakeJK  time:  CPU       0.12 s  wall       0.12 s
Fock build time:  0.12 s (CPU) 0.12 s (wall)
DIIS Errors:  Max 2.08E-02 RMS 3.45E-03

Current DIIS subspace size = 3
REM_GRID_RESTART_DIIS = 0

    3    -153.0136481710      3.45E-03  00000
Finding J and K together
 Job number = 22, Threshold = 1.00E-11
Integral type ranges set in mkLRange.C for JobNum: 22  <1-6|1-6>
 MakeJK  time:  CPU       0.12 s  wall       0.12 s
Fock build time:  0.12 s (CPU) 0.12 s (wall)
DIIS Errors:  Max 6.43E-03 RMS 1.19E-03

Current DIIS subspace size = 4
REM_GRID_RESTART_DIIS = 0

    4    -153.0154337997      1.19E-03  00000
Finding J and K together
 Job number = 22, Threshold = 1.00E-11
Integral type ranges set in mkLRange.C for JobNum: 22  <1-6|1-6>
 MakeJK  time:  CPU       0.12 s  wall       0.12 s
Fock build time:  0.12 s (CPU) 0.13 s (wall)
DIIS Errors:  Max 7.00E-04 RMS 9.71E-05

Current DIIS subspace size = 5
REM_GRID_RESTART_DIIS = 0

    5    -153.0155818372      9.71E-05  00000
Finding J and K together
 Job number = 22, Threshold = 1.00E-11
Integral type ranges set in mkLRange.C for JobNum: 22  <1-6|1-6>
 MakeJK  time:  CPU       0.16 s  wall       0.16 s
Fock build time:  0.16 s (CPU) 0.16 s (wall)
DIIS Errors:  Max 1.01E-04 RMS 1.35E-05

Current DIIS subspace size = 6
REM_GRID_RESTART_DIIS = 0

    6    -153.0155851064      1.35E-05  00000
Finding J and K together
 Job number = 22, Threshold = 1.00E-11
Integral type ranges set in mkLRange.C for JobNum: 22  <1-6|1-6>
 MakeJK  time:  CPU       0.19 s  wall       0.19 s
Fock build time:  0.19 s (CPU) 0.19 s (wall)
DIIS Errors:  Max 1.45E-05 RMS 3.37E-06

Current DIIS subspace size = 7
REM_GRID_RESTART_DIIS = 0

    7    -153.0155851664      3.37E-06  00000
Finding J and K together
 Job number = 22, Threshold = 1.00E-11
Integral type ranges set in mkLRange.C for JobNum: 22  <1-6|1-6>
 MakeJK  time:  CPU       0.16 s  wall       0.15 s
Fock build time:  0.16 s (CPU) 0.16 s (wall)
DIIS Errors:  Max 5.70E-06 RMS 8.97E-07

Current DIIS subspace size = 8
REM_GRID_RESTART_DIIS = 0

    8    -153.0155851680      8.97E-07  00000
Finding J and K together
 Job number = 22, Threshold = 1.00E-11
Integral type ranges set in mkLRange.C for JobNum: 22  <1-6|1-6>
 MakeJK  time:  CPU       0.14 s  wall       0.14 s
Fock build time:  0.14 s (CPU) 0.14 s (wall)
DIIS Errors:  Max 1.03E-06 RMS 1.30E-07

Current DIIS subspace size = 9
REM_GRID_RESTART_DIIS = 0

    9    -153.0155851681      1.30E-07  00000
Finding J and K together
 Job number = 22, Threshold = 1.00E-11
Integral type ranges set in mkLRange.C for JobNum: 22  <1-6|1-6>
 MakeJK  time:  CPU       0.12 s  wall       0.12 s
Fock build time:  0.12 s (CPU) 0.12 s (wall)
DIIS Errors:  Max 4.27E-07 RMS 5.34E-08

Current DIIS subspace size = 10
REM_GRID_RESTART_DIIS = 0

   10    -153.0155851681      5.34E-08  00000
Finding J and K together
 Job number = 22, Threshold = 1.00E-11
Integral type ranges set in mkLRange.C for JobNum: 22  <1-6|1-6>
 MakeJK  time:  CPU       0.14 s  wall       0.14 s
Fock build time:  0.14 s (CPU) 0.14 s (wall)
DIIS Errors:  Max 3.72E-08 RMS 8.12E-09

Current DIIS subspace size = 11
REM_GRID_RESTART_DIIS = 0

   11    -153.0155851681      8.12E-09  00000 Convergence criterion met
 ---------------------------------------
 SCF time:  CPU 1.56 s  wall 1.56 s
 SCF   energy in the final basis set = -153.01558517
 Total energy in the final basis set = -153.01558517
drvman_main.C: 73: calling DrvMan  Calculating analytic gradient of the SCF energy
drvman.C : 218: Calculating analytic gradient of the SCF energy
drvman.C: 244: calling SCF_Grad for normal SCF gradient
 Job number = 111, Threshold = 1.00E-11
Integral type ranges set in mkLRange.C for JobNum: 11  <1-6|7-7>
 Warning:  Cost of integrals step H3 set to -892620531
 Warning:  Retrieved cost of -892620531 for integrals step H3
 Warning:  Retrieved cost of -892620531 for integrals step H3
 Warning:  Retrieved cost of -892620531 for integrals step H3
Finding J and K together
 ML is being used
 Job number = 122, Threshold = 1.00E-11
Integral type ranges set in mkLRange.C for JobNum: 22  <1-6|1-6>
 MakeJK  time:  CPU       0.34 s  wall       0.35 s
 Gradient of SCF Energy
            1           2           3           4           5           6
    1   0.0291711  -0.0654666   0.0056321  -0.0016145   0.0667586  -0.0325448
    2   0.0200291   0.0035144  -0.0136538   0.0049740   0.0009353   0.0043793
    3   0.0003599  -0.0247579   0.0083958  -0.0042060   0.0202415  -0.0137528
            7           8           9          10
    1  -0.0062668   0.0073570   0.0029473  -0.0059733
    2  -0.0122264  -0.0030704   0.0020421  -0.0069237
    3   0.0062670   0.0045570   0.0000775   0.0028181
 Max gradient component =       6.676E-02
 RMS gradient           =       2.086E-02
drvman.C: 248: out of SCF_Grad for normal SCF gradient
 Gradient time:  CPU 0.36 s  wall 0.37 s
 ------------------------------------------------------------------------------
                     drvman        : Timing summary (seconds)
 ------------------------------------------------------------------------------
     job step          cpu (% of tot)      sys (% of tot)     wall (% of tot)
 ------------------------------------------------------------------------------
 ------------------------------------------------------------------------------
   Grand Totals     0.3600E+00          0.3000E-05          0.3736E+00
 ------------------------------------------------------------------------------
drvman_main.C: 77: out of DrvMan  Time for this dynamics step: 2.0 s (CPU) 2.0 s (wall)

TIME STEP #2 (t = 20.000 a.u. = 0.48378 fs)
--------------------------------------
 Instantaneous Temperature = 446.3 K
 ----------------------------------------------------------------
             Standard Nuclear Orientation (Angstroms)
    I     Atom           X                Y                Z
 ----------------------------------------------------------------
    1      C       5.3548429709     0.6246417844     0.0447075208
    2      C       4.0703682916     0.3012127842    -0.1715842857
    3      H       6.0051314913    -0.0486872809     0.6438535685
    4      H       5.7698394026     1.5175495001    -0.4201497693
    5      C       3.1851801134     1.0845369949    -0.9971196662
    6      C       1.9020048863     0.7742083099    -1.2132027800
    7      H       1.4246965232    -0.1206560138    -0.7639416609
    8      H       1.2926505676     1.3843451940    -1.8307155624
    9      H       3.6679820107    -0.5845083199     0.2827260617
   10      H       3.5774105492     1.9582849221    -1.4539232746
 ----------------------------------------------------------------
 Nuclear Repulsion Energy =   104.1327043238 hartrees
 There are       15 alpha and       15 beta electrons

                       Distance Matrix (Angstroms)
             C (  1)   C (  2)   H (  3)   H (  4)   C (  5)   C (  6)
   C (  2)  1.342112
   H (  3)  1.111406  2.128539
   H (  4)  1.088852  2.104629  1.908026
   C (  5)  2.450376  1.441757  3.453855  2.683441
   C (  6)  3.677880  2.451631  4.578369  4.017665  1.337735
   H (  7)  4.081107  2.743800  4.792437  4.656412  2.146198  1.109252
   H (  8)  4.538256  3.411980  5.512218  4.696026  2.089602  1.060614
   H (  9)  2.089066  1.073692  2.424827  3.054584  2.157965  2.683764
   H ( 10)  2.680255  2.152508  3.784499  2.463672  1.061108  2.065664
             H (  7)   H (  8)   H (  9)
   H (  8)  1.849452
   H (  9)  2.518532  3.739682
   H ( 10)  3.071196  2.385688  3.080577

 Applying Cartesian multipole field
    Component          Value
    ---------          -----
     (2,0,0)        1.00000E-12
     (0,2,0)        2.00000E-11
     (0,0,2)       -3.00000E-11
 Nucleus-field energy     =     0.0000000009 hartrees
 ENuRep (before)= 104.1327043238
 ENucField = 0.0000000009
 ENuRep (after) = 104.1327043246
 Job number = 2, Threshold = 1.00E-11
Integral type ranges set in mkLRange.C for JobNum: 2  <1-6|1-6>
Symmetry turned off temporarily
Symmetry turned back on
 Job number = 11, Threshold = 1.00E-11
Integral type ranges set in mkLRange.C for JobNum: 11  <1-6|7-7>
 Smallest overlap matrix eigenvalue = 1.83E-01
 Multipole matrices computed through 2nd order
 Guess from superposition of atomic densities
 Warning:  Energy on first SCF cycle will be non-variational
 SAD guess density has 30.000000 electrons
 SCF convergence criterion is 10**(-8)
 A restricted Hartree-Fock SCF calculation will be
 performed using Pulay DIIS extrapolation
 SCF converges when DIIS error is below 1.0E-08
Finding J and K together
 Job number = 22, Threshold = 1.00E-11
Integral type ranges set in mkLRange.C for JobNum: 22  <1-6|1-6>
 MakeJK  time:  CPU       0.14 s  wall       0.16 s
Fock build time:  0.14 s (CPU) 0.16 s (wall)
DIIS Errors:  Max 1.09E+00 RMS 2.15E-01

Current DIIS subspace size = 1
REM_GRID_RESTART_DIIS = 0

 ---------------------------------------
  Cycle       Energy         DIIS Error
 ---------------------------------------
    1    -152.6512345837      2.15E-01  00000
Finding J and K together
 Job number = 22, Threshold = 1.00E-11
Integral type ranges set in mkLRange.C for JobNum: 22  <1-6|1-6>
 MakeJK  time:  CPU       0.19 s  wall       0.19 s
Fock build time:  0.19 s (CPU) 0.19 s (wall)
DIIS Errors:  Max 6.91E-02 RMS 1.28E-02

Current DIIS subspace size = 2
REM_GRID_RESTART_DIIS = 0

    2    -152.9875413795      1.28E-02  00000
Finding J and K together
 Job number = 22, Threshold = 1.00E-11
Integral type ranges set in mkLRange.C for JobNum: 22  <1-6|1-6>
 MakeJK  time:  CPU       0.17 s  wall       0.17 s
Fock build time:  0.17 s (CPU) 0.17 s (wall)
DIIS Errors:  Max 2.06E-02 RMS 3.42E-03

Current DIIS subspace size = 3
REM_GRID_RESTART_DIIS = 0

    3    -153.0115438970      3.42E-03  00000
Finding J and K together
 Job number = 22, Threshold = 1.00E-11
Integral type ranges set in mkLRange.C for JobNum: 22  <1-6|1-6>
 MakeJK  time:  CPU       0.19 s  wall       0.19 s
Fock build time:  0.19 s (CPU) 0.19 s (wall)
DIIS Errors:  Max 6.20E-03 RMS 1.11E-03

Current DIIS subspace size = 4
REM_GRID_RESTART_DIIS = 0

    4    -153.0133273578      1.11E-03  00000
Finding J and K together
 Job number = 22, Threshold = 1.00E-11
Integral type ranges set in mkLRange.C for JobNum: 22  <1-6|1-6>
 MakeJK  time:  CPU       0.14 s  wall       0.14 s
Fock build time:  0.14 s (CPU) 0.14 s (wall)
DIIS Errors:  Max 7.09E-04 RMS 9.78E-05

Current DIIS subspace size = 5
REM_GRID_RESTART_DIIS = 0

    5    -153.0134545678      9.78E-05  00000
Finding J and K together
 Job number = 22, Threshold = 1.00E-11
Integral type ranges set in mkLRange.C for JobNum: 22  <1-6|1-6>
 MakeJK  time:  CPU       0.18 s  wall       0.18 s
Fock build time:  0.18 s (CPU) 0.18 s (wall)
DIIS Errors:  Max 1.03E-04 RMS 1.54E-05

Current DIIS subspace size = 6
REM_GRID_RESTART_DIIS = 0

    6    -153.0134578647      1.54E-05  00000
Finding J and K together
 Job number = 22, Threshold = 1.00E-11
Integral type ranges set in mkLRange.C for JobNum: 22  <1-6|1-6>
 MakeJK  time:  CPU       0.18 s  wall       0.18 s
Fock build time:  0.18 s (CPU) 0.18 s (wall)
DIIS Errors:  Max 2.54E-05 RMS 5.11E-06

Current DIIS subspace size = 7
REM_GRID_RESTART_DIIS = 0

    7    -153.0134579287      5.11E-06  00000
Finding J and K together
 Job number = 22, Threshold = 1.00E-11
Integral type ranges set in mkLRange.C for JobNum: 22  <1-6|1-6>
 MakeJK  time:  CPU       0.18 s  wall       0.18 s
Fock build time:  0.18 s (CPU) 0.18 s (wall)
DIIS Errors:  Max 6.66E-06 RMS 9.22E-07

Current DIIS subspace size = 8
REM_GRID_RESTART_DIIS = 0

    8    -153.0134579323      9.22E-07  00000
Finding J and K together
 Job number = 22, Threshold = 1.00E-11
Integral type ranges set in mkLRange.C for JobNum: 22  <1-6|1-6>
 MakeJK  time:  CPU       0.18 s  wall       0.18 s
Fock build time:  0.18 s (CPU) 0.18 s (wall)
DIIS Errors:  Max 1.73E-06 RMS 2.24E-07

Current DIIS subspace size = 9
REM_GRID_RESTART_DIIS = 0

    9    -153.0134579325      2.24E-07  00000
Finding J and K together
 Job number = 22, Threshold = 1.00E-11
Integral type ranges set in mkLRange.C for JobNum: 22  <1-6|1-6>
 MakeJK  time:  CPU       0.14 s  wall       0.15 s
Fock build time:  0.14 s (CPU) 0.15 s (wall)
DIIS Errors:  Max 5.58E-07 RMS 7.80E-08

Current DIIS subspace size = 10
REM_GRID_RESTART_DIIS = 0

   10    -153.0134579325      7.80E-08  00000
Finding J and K together
 Job number = 22, Threshold = 1.00E-11
Integral type ranges set in mkLRange.C for JobNum: 22  <1-6|1-6>
 MakeJK  time:  CPU       0.16 s  wall       0.16 s
Fock build time:  0.16 s (CPU) 0.16 s (wall)
DIIS Errors:  Max 4.95E-08 RMS 1.06E-08

Current DIIS subspace size = 11
REM_GRID_RESTART_DIIS = 0

   11    -153.0134579325      1.06E-08  00000
Finding J and K together
 Job number = 22, Threshold = 1.00E-11
Integral type ranges set in mkLRange.C for JobNum: 22  <1-6|1-6>
 MakeJK  time:  CPU       0.12 s  wall       0.12 s
Fock build time:  0.12 s (CPU) 0.12 s (wall)
DIIS Errors:  Max 2.23E-08 RMS 3.34E-09

Current DIIS subspace size = 12
REM_GRID_RESTART_DIIS = 0

   12    -153.0134579325      3.34E-09  00000 Convergence criterion met
 ---------------------------------------
 SCF time:  CPU 1.98 s  wall 2.03 s
 SCF   energy in the final basis set = -153.01345793
 Total energy in the final basis set = -153.01345793
drvman_main.C: 73: calling DrvMan  Calculating analytic gradient of the SCF energy
drvman.C : 218: Calculating analytic gradient of the SCF energy
drvman.C: 244: calling SCF_Grad for normal SCF gradient
 Job number = 111, Threshold = 1.00E-11
Integral type ranges set in mkLRange.C for JobNum: 11  <1-6|7-7>
Finding J and K together
 ML is being used
 Job number = 122, Threshold = 1.00E-11
Integral type ranges set in mkLRange.C for JobNum: 22  <1-6|1-6>
 MakeJK  time:  CPU       0.45 s  wall       0.46 s
 Gradient of SCF Energy
            1           2           3           4           5           6
    1   0.0282753  -0.0675071   0.0109406  -0.0042103   0.0696939  -0.0343770
    2   0.0255345  -0.0002459  -0.0219725   0.0067146   0.0092010   0.0201216
    3   0.0004829  -0.0232306   0.0127458  -0.0065971   0.0142583  -0.0249584
            7           8           9          10
    1  -0.0106776   0.0138171   0.0050023  -0.0109572
    2  -0.0195696  -0.0101766   0.0078457  -0.0174528
    3   0.0099022   0.0115858  -0.0026611   0.0084721
 Max gradient component =       6.969E-02
 RMS gradient           =       2.337E-02
drvman.C: 248: out of SCF_Grad for normal SCF gradient
 Gradient time:  CPU 0.46 s  wall 0.47 s
 ------------------------------------------------------------------------------
                     drvman        : Timing summary (seconds)
 ------------------------------------------------------------------------------
     job step          cpu (% of tot)      sys (% of tot)     wall (% of tot)
 ------------------------------------------------------------------------------
 ------------------------------------------------------------------------------
   Grand Totals     0.4600E+00          0.2000E-05          0.4695E+00
 ------------------------------------------------------------------------------
drvman_main.C: 77: out of DrvMan  Time for this dynamics step: 2.5 s (CPU) 2.5 s (wall)

TIME STEP #3 (t = 40.000 a.u. = 0.96755 fs)
--------------------------------------
 Instantaneous Temperature = 402.6 K
 ----------------------------------------------------------------
             Standard Nuclear Orientation (Angstroms)
    I     Atom           X                Y                Z
 ----------------------------------------------------------------
    1      C       5.3577897125     0.6240286853     0.0462298671
    2      C       4.0718624169     0.3027245521    -0.1691518511
    3      H       6.0175622494    -0.0697877570     0.6299431604
    4      H       5.7553522028     1.5190790779    -0.4340622541
    5      C       3.1833077792     1.0822019332    -0.9973754041
    6      C       1.9005874399     0.7777465692    -1.2149961197
    7      H       1.4129610359    -0.1199449458    -0.7619444184
    8      H       1.2982700755     1.3817921774    -1.8300607357
    9      H       3.6673018805    -0.5763290781     0.2827312243
   10      H       3.5725573802     1.9464920882    -1.4514483817
 ----------------------------------------------------------------
 Nuclear Repulsion Energy =   104.1329547722 hartrees
 There are       15 alpha and       15 beta electrons

                       Distance Matrix (Angstroms)
             C (  1)   C (  2)   H (  3)   H (  4)   C (  5)   C (  6)
   C (  2)  1.342846
   H (  3)  1.121339  2.136133
   H (  4)  1.090803  2.093761  1.930119
   C (  5)  2.455078  1.443284  3.465291  2.669007
   C (  6)  3.683282  2.456394  4.590381  4.002330  1.336197
   H (  7)  4.094913  2.756775  4.810636  4.652985  2.152838  1.117535
   H (  8)  4.535898  3.408199  5.516378  4.672605  2.082423  1.051647
   H (  9)  2.086754  1.067990  2.429169  3.043761  2.150267  2.682907
   H ( 10)  2.679366  2.143726  3.791520  2.445884  1.051045  2.053621
             H (  7)   H (  8)   H (  9)
   H (  8)  1.846413
   H (  9)  2.526200  3.729670
   H ( 10)  3.067480  2.373735  3.062839

 Applying Cartesian multipole field
    Component          Value
    ---------          -----
     (2,0,0)        1.00000E-12
     (0,2,0)        2.00000E-11
     (0,0,2)       -3.00000E-11
 Nucleus-field energy     =     0.0000000009 hartrees
 ENuRep (before)= 104.1329547722
 ENucField = 0.0000000009
 ENuRep (after) = 104.1329547730
 Job number = 2, Threshold = 1.00E-11
Integral type ranges set in mkLRange.C for JobNum: 2  <1-6|1-6>
Symmetry turned off temporarily
Symmetry turned back on
 Job number = 11, Threshold = 1.00E-11
Integral type ranges set in mkLRange.C for JobNum: 11  <1-6|7-7>
 Smallest overlap matrix eigenvalue = 1.83E-01
 Multipole matrices computed through 2nd order
 Guess from superposition of atomic densities
 Warning:  Energy on first SCF cycle will be non-variational
 SAD guess density has 30.000000 electrons
 SCF convergence criterion is 10**(-8)
 A restricted Hartree-Fock SCF calculation will be
 performed using Pulay DIIS extrapolation
 SCF converges when DIIS error is below 1.0E-08
Finding J and K together
 Job number = 22, Threshold = 1.00E-11
Integral type ranges set in mkLRange.C for JobNum: 22  <1-6|1-6>
 MakeJK  time:  CPU       0.15 s  wall       0.15 s
Fock build time:  0.15 s (CPU) 0.15 s (wall)
DIIS Errors:  Max 1.10E+00 RMS 2.16E-01

Current DIIS subspace size = 1
REM_GRID_RESTART_DIIS = 0

 ---------------------------------------
  Cycle       Energy         DIIS Error
 ---------------------------------------
    1    -152.6560572312      2.16E-01  00000
Finding J and K together
 Job number = 22, Threshold = 1.00E-11
Integral type ranges set in mkLRange.C for JobNum: 22  <1-6|1-6>
 MakeJK  time:  CPU       0.19 s  wall       0.20 s
Fock build time:  0.19 s (CPU) 0.20 s (wall)
DIIS Errors:  Max 6.90E-02 RMS 1.28E-02

Current DIIS subspace size = 2
REM_GRID_RESTART_DIIS = 0

    2    -152.9850389658      1.28E-02  00000
Finding J and K together
 Job number = 22, Threshold = 1.00E-11
Integral type ranges set in mkLRange.C for JobNum: 22  <1-6|1-6>
 MakeJK  time:  CPU       0.15 s  wall       0.16 s
Fock build time:  0.15 s (CPU) 0.16 s (wall)
DIIS Errors:  Max 2.04E-02 RMS 3.39E-03

Current DIIS subspace size = 3
REM_GRID_RESTART_DIIS = 0

    3    -153.0090096856      3.39E-03  00000
Finding J and K together
 Job number = 22, Threshold = 1.00E-11
Integral type ranges set in mkLRange.C for JobNum: 22  <1-6|1-6>
 MakeJK  time:  CPU       0.13 s  wall       0.13 s
Fock build time:  0.13 s (CPU) 0.13 s (wall)
DIIS Errors:  Max 5.94E-03 RMS 1.03E-03

Current DIIS subspace size = 4
REM_GRID_RESTART_DIIS = 0

    4    -153.0107916910      1.03E-03  00000
Finding J and K together
 Job number = 22, Threshold = 1.00E-11
Integral type ranges set in mkLRange.C for JobNum: 22  <1-6|1-6>
 MakeJK  time:  CPU       0.16 s  wall       0.16 s
Fock build time:  0.16 s (CPU) 0.16 s (wall)
DIIS Errors:  Max 7.11E-04 RMS 9.80E-05

Current DIIS subspace size = 5
REM_GRID_RESTART_DIIS = 0

    5    -153.0109018880      9.80E-05  00000
Finding J and K together
 Job number = 22, Threshold = 1.00E-11
Integral type ranges set in mkLRange.C for JobNum: 22  <1-6|1-6>
 MakeJK  time:  CPU       0.16 s  wall       0.16 s
Fock build time:  0.16 s (CPU) 0.16 s (wall)
DIIS Errors:  Max 1.06E-04 RMS 1.74E-05

Current DIIS subspace size = 6
REM_GRID_RESTART_DIIS = 0

    6    -153.0109051603      1.74E-05  00000
Finding J and K together
 Job number = 22, Threshold = 1.00E-11
Integral type ranges set in mkLRange.C for JobNum: 22  <1-6|1-6>
 MakeJK  time:  CPU       0.18 s  wall       0.18 s
Fock build time:  0.18 s (CPU) 0.18 s (wall)
DIIS Errors:  Max 3.12E-05 RMS 5.88E-06

Current DIIS subspace size = 7
REM_GRID_RESTART_DIIS = 0

    7    -153.0109052302      5.88E-06  00000
Finding J and K together
 Job number = 22, Threshold = 1.00E-11
Integral type ranges set in mkLRange.C for JobNum: 22  <1-6|1-6>
 MakeJK  time:  CPU       0.19 s  wall       0.21 s
Fock build time:  0.19 s (CPU) 0.21 s (wall)
DIIS Errors:  Max 7.38E-06 RMS 9.99E-07

Current DIIS subspace size = 8
REM_GRID_RESTART_DIIS = 0

    8    -153.0109052355      9.99E-07  00000
Finding J and K together
 Job number = 22, Threshold = 1.00E-11
Integral type ranges set in mkLRange.C for JobNum: 22  <1-6|1-6>
 MakeJK  time:  CPU       0.14 s  wall       0.14 s
Fock build time:  0.14 s (CPU) 0.14 s (wall)
DIIS Errors:  Max 2.12E-06 RMS 2.94E-07

Current DIIS subspace size = 9
REM_GRID_RESTART_DIIS = 0

    9    -153.0109052357      2.94E-07  00000
Finding J and K together
 Job number = 22, Threshold = 1.00E-11
Integral type ranges set in mkLRange.C for JobNum: 22  <1-6|1-6>
 MakeJK  time:  CPU       0.16 s  wall       0.16 s
Fock build time:  0.16 s (CPU) 0.17 s (wall)
DIIS Errors:  Max 5.47E-07 RMS 8.80E-08

Current DIIS subspace size = 10
REM_GRID_RESTART_DIIS = 0

   10    -153.0109052357      8.80E-08  00000
Finding J and K together
 Job number = 22, Threshold = 1.00E-11
Integral type ranges set in mkLRange.C for JobNum: 22  <1-6|1-6>
 MakeJK  time:  CPU       0.15 s  wall       0.15 s
Fock build time:  0.15 s (CPU) 0.15 s (wall)
DIIS Errors:  Max 6.13E-08 RMS 1.21E-08

Current DIIS subspace size = 11
REM_GRID_RESTART_DIIS = 0

   11    -153.0109052357      1.21E-08  00000
Finding J and K together
 Job number = 22, Threshold = 1.00E-11
Integral type ranges set in mkLRange.C for JobNum: 22  <1-6|1-6>
 MakeJK  time:  CPU       0.19 s  wall       0.19 s
Fock build time:  0.19 s (CPU) 0.19 s (wall)
DIIS Errors:  Max 2.69E-08 RMS 4.20E-09

Current DIIS subspace size = 12
REM_GRID_RESTART_DIIS = 0

   12    -153.0109052357      4.20E-09  00000 Convergence criterion met
 ---------------------------------------
 SCF time:  CPU 1.99 s  wall 2.02 s
 SCF   energy in the final basis set = -153.01090524
 Total energy in the final basis set = -153.01090524
drvman_main.C: 73: calling DrvMan  Calculating analytic gradient of the SCF energy
drvman.C : 218: Calculating analytic gradient of the SCF energy
drvman.C: 244: calling SCF_Grad for normal SCF gradient
 Job number = 111, Threshold = 1.00E-11
Integral type ranges set in mkLRange.C for JobNum: 11  <1-6|7-7>
Finding J and K together
 ML is being used
 Job number = 122, Threshold = 1.00E-11
Integral type ranges set in mkLRange.C for JobNum: 22  <1-6|1-6>
 MakeJK  time:  CPU       0.50 s  wall       0.51 s
 Gradient of SCF Energy
            1           2           3           4           5           6
    1   0.0272603  -0.0672813   0.0150043  -0.0066559   0.0698410  -0.0345649
    2   0.0292699  -0.0031682  -0.0287120   0.0083359   0.0156743   0.0325113
    3   0.0018344  -0.0214444   0.0154447  -0.0087953   0.0085529  -0.0334927
            7           8           9          10
    1  -0.0140269   0.0188272   0.0066036  -0.0150073
    2  -0.0246407  -0.0159296   0.0128283  -0.0261692
    3   0.0124097   0.0172880  -0.0050733   0.0132759
 Max gradient component =       6.984E-02
 RMS gradient           =       2.571E-02
drvman.C: 248: out of SCF_Grad for normal SCF gradient
 Gradient time:  CPU 0.52 s  wall 0.53 s
 ------------------------------------------------------------------------------
                     drvman        : Timing summary (seconds)
 ------------------------------------------------------------------------------
     job step          cpu (% of tot)      sys (% of tot)     wall (% of tot)
 ------------------------------------------------------------------------------
 ------------------------------------------------------------------------------
   Grand Totals     0.5240E+00          0.2000E-05          0.5320E+00
 ------------------------------------------------------------------------------
drvman_main.C: 77: out of DrvMan  Time for this dynamics step: 2.5 s (CPU) 2.6 s (wall)

TIME STEP #4 (t = 60.000 a.u. = 1.45133 fs)
--------------------------------------
 Instantaneous Temperature = 350.1 K
 ----------------------------------------------------------------
             Standard Nuclear Orientation (Angstroms)
    I     Atom           X                Y                Z
 ----------------------------------------------------------------
    1      C       5.3604726692     0.6231323552     0.0477344624
    2      C       4.0740075920     0.3042669767    -0.1665119094
    3      H       6.0282642645    -0.0875801452     0.6142532740
    4      H       5.7416318718     1.5196482226    -0.4469613828
    5      C       3.1807596267     1.0797151987    -0.9977139043
    6      C       1.8995044621     0.7809702320    -1.2164653662
    7      H       1.4028416756    -0.1163948653    -0.7613769803
    8      H       1.3017203881     1.3810745057    -1.8313977643
    9      H       3.6658609075    -0.5696278640     0.2833209100
   10      H       3.5694332941     1.9377143743    -1.4505030876
 ----------------------------------------------------------------
 Nuclear Repulsion Energy =   104.1324409061 hartrees
 There are       15 alpha and       15 beta electrons

                       Distance Matrix (Angstroms)
             C (  1)   C (  2)   H (  3)   H (  4)   C (  5)   C (  6)
   C (  2)  1.342598
   H (  3)  1.127830  2.140621
   H (  4)  1.092587  2.082492  1.947182
   C (  5)  2.460199  1.445721  3.474090  2.656113
   C (  6)  3.688010  2.461323  4.599192  3.987446  1.333685
   H (  7)  4.106629  2.768745  4.825735  4.647644  2.155812  1.122071
   H (  8)  4.536418  3.408363  5.520722  4.652814  2.077651  1.046715
   H (  9)  2.085638  1.064249  2.433688  3.034339  2.143993  2.682068
   H ( 10)  2.679676  2.138078  3.796167  2.429058  1.045107  2.044870
             H (  7)   H (  8)   H (  9)
   H (  8)  1.843254
   H (  9)  2.533391  3.723766
   H ( 10)  3.064046  2.365893  3.049952

 Applying Cartesian multipole field
    Component          Value
    ---------          -----
     (2,0,0)        1.00000E-12
     (0,2,0)        2.00000E-11
     (0,0,2)       -3.00000E-11
 Nucleus-field energy     =     0.0000000009 hartrees
 ENuRep (before)= 104.1324409061
 ENucField = 0.0000000009
 ENuRep (after) = 104.1324409069
 Job number = 2, Threshold = 1.00E-11
Integral type ranges set in mkLRange.C for JobNum: 2  <1-6|1-6>
Symmetry turned off temporarily
Symmetry turned back on
 Job number = 11, Threshold = 1.00E-11
Integral type ranges set in mkLRange.C for JobNum: 11  <1-6|7-7>
 Smallest overlap matrix eigenvalue = 1.82E-01
 Multipole matrices computed through 2nd order
 Guess from superposition of atomic densities
 Warning:  Energy on first SCF cycle will be non-variational
 SAD guess density has 30.000000 electrons
 SCF convergence criterion is 10**(-8)
 A restricted Hartree-Fock SCF calculation will be
 performed using Pulay DIIS extrapolation
 SCF converges when DIIS error is below 1.0E-08
Finding J and K together
 Job number = 22, Threshold = 1.00E-11
Integral type ranges set in mkLRange.C for JobNum: 22  <1-6|1-6>
 MakeJK  time:  CPU       0.15 s  wall       0.14 s
Fock build time:  0.15 s (CPU) 0.15 s (wall)
DIIS Errors:  Max 1.10E+00 RMS 2.16E-01

Current DIIS subspace size = 1
REM_GRID_RESTART_DIIS = 0

 ---------------------------------------
  Cycle       Energy         DIIS Error
 ---------------------------------------
    1    -152.6607215797      2.16E-01  00000
Finding J and K together
 Job number = 22, Threshold = 1.00E-11
Integral type ranges set in mkLRange.C for JobNum: 22  <1-6|1-6>
 MakeJK  time:  CPU       0.18 s  wall       0.19 s
Fock build time:  0.18 s (CPU) 0.19 s (wall)
DIIS Errors:  Max 6.89E-02 RMS 1.28E-02

Current DIIS subspace size = 2
REM_GRID_RESTART_DIIS = 0

    2    -152.9830343229      1.28E-02  00000
Finding J and K together
 Job number = 22, Threshold = 1.00E-11
Integral type ranges set in mkLRange.C for JobNum: 22  <1-6|1-6>
 MakeJK  time:  CPU       0.18 s  wall       0.19 s
Fock build time:  0.18 s (CPU) 0.20 s (wall)
DIIS Errors:  Max 2.03E-02 RMS 3.37E-03

Current DIIS subspace size = 3
REM_GRID_RESTART_DIIS = 0

    3    -153.0069883433      3.37E-03  00000
Finding J and K together
 Job number = 22, Threshold = 1.00E-11
Integral type ranges set in mkLRange.C for JobNum: 22  <1-6|1-6>
 MakeJK  time:  CPU       0.18 s  wall       0.19 s
Fock build time:  0.18 s (CPU) 0.19 s (wall)
DIIS Errors:  Max 5.70E-03 RMS 9.67E-04

Current DIIS subspace size = 4
REM_GRID_RESTART_DIIS = 0

    4    -153.0087684015      9.67E-04  00000
Finding J and K together
 Job number = 22, Threshold = 1.00E-11
Integral type ranges set in mkLRange.C for JobNum: 22  <1-6|1-6>
 MakeJK  time:  CPU       0.18 s  wall       0.19 s
Fock build time:  0.18 s (CPU) 0.19 s (wall)
DIIS Errors:  Max 7.08E-04 RMS 9.76E-05

Current DIIS subspace size = 5
REM_GRID_RESTART_DIIS = 0

    5    -153.0088660052      9.76E-05  00000
Finding J and K together
 Job number = 22, Threshold = 1.00E-11
Integral type ranges set in mkLRange.C for JobNum: 22  <1-6|1-6>
 MakeJK  time:  CPU       0.19 s  wall       0.20 s
Fock build time:  0.19 s (CPU) 0.20 s (wall)
DIIS Errors:  Max 1.08E-04 RMS 1.89E-05

Current DIIS subspace size = 6
REM_GRID_RESTART_DIIS = 0

    6    -153.0088692013      1.89E-05  00000
Finding J and K together
 Job number = 22, Threshold = 1.00E-11
Integral type ranges set in mkLRange.C for JobNum: 22  <1-6|1-6>
 MakeJK  time:  CPU       0.19 s  wall       0.19 s
Fock build time:  0.19 s (CPU) 0.19 s (wall)
DIIS Errors:  Max 3.33E-05 RMS 6.17E-06

Current DIIS subspace size = 7
REM_GRID_RESTART_DIIS = 0

    7    -153.0088692766      6.17E-06  00000
Finding J and K together
 Job number = 22, Threshold = 1.00E-11
Integral type ranges set in mkLRange.C for JobNum: 22  <1-6|1-6>
 MakeJK  time:  CPU       0.19 s  wall       0.19 s
Fock build time:  0.19 s (CPU) 0.19 s (wall)
DIIS Errors:  Max 7.38E-06 RMS 1.06E-06

Current DIIS subspace size = 8
REM_GRID_RESTART_DIIS = 0

    8    -153.0088692829      1.06E-06  00000
Finding J and K together
 Job number = 22, Threshold = 1.00E-11
Integral type ranges set in mkLRange.C for JobNum: 22  <1-6|1-6>
 MakeJK  time:  CPU       0.19 s  wall       0.19 s
Fock build time:  0.19 s (CPU) 0.19 s (wall)
DIIS Errors:  Max 2.12E-06 RMS 3.35E-07

Current DIIS subspace size = 9
REM_GRID_RESTART_DIIS = 0

    9    -153.0088692831      3.35E-07  00000
Finding J and K together
 Job number = 22, Threshold = 1.00E-11
Integral type ranges set in mkLRange.C for JobNum: 22  <1-6|1-6>
 MakeJK  time:  CPU       0.18 s  wall       0.19 s
Fock build time:  0.19 s (CPU) 0.19 s (wall)
DIIS Errors:  Max 4.57E-07 RMS 8.58E-08

Current DIIS subspace size = 10
REM_GRID_RESTART_DIIS = 0

   10    -153.0088692832      8.58E-08  00000
Finding J and K together
 Job number = 22, Threshold = 1.00E-11
Integral type ranges set in mkLRange.C for JobNum: 22  <1-6|1-6>
 MakeJK  time:  CPU       0.20 s  wall       0.20 s
Fock build time:  0.20 s (CPU) 0.20 s (wall)
DIIS Errors:  Max 6.81E-08 RMS 1.29E-08

Current DIIS subspace size = 11
REM_GRID_RESTART_DIIS = 0

   11    -153.0088692832      1.29E-08  00000
Finding J and K together
 Job number = 22, Threshold = 1.00E-11
Integral type ranges set in mkLRange.C for JobNum: 22  <1-6|1-6>
 MakeJK  time:  CPU       0.12 s  wall       0.13 s
Fock build time:  0.12 s (CPU) 0.13 s (wall)
DIIS Errors:  Max 2.80E-08 RMS 4.63E-09

Current DIIS subspace size = 12
REM_GRID_RESTART_DIIS = 0

   12    -153.0088692832      4.63E-09  00000 Convergence criterion met
 ---------------------------------------
 SCF time:  CPU 2.18 s  wall 2.22 s
 SCF   energy in the final basis set = -153.00886928
 Total energy in the final basis set = -153.00886928
drvman_main.C: 73: calling DrvMan  Calculating analytic gradient of the SCF energy
drvman.C : 218: Calculating analytic gradient of the SCF energy
drvman.C: 244: calling SCF_Grad for normal SCF gradient
 Job number = 111, Threshold = 1.00E-11
Integral type ranges set in mkLRange.C for JobNum: 11  <1-6|7-7>
Finding J and K together
 ML is being used
 Job number = 122, Threshold = 1.00E-11
Integral type ranges set in mkLRange.C for JobNum: 22  <1-6|1-6>
 MakeJK  time:  CPU       0.43 s  wall       0.43 s
 Gradient of SCF Energy
            1           2           3           4           5           6
    1   0.0263949  -0.0645902   0.0175683  -0.0089476   0.0665449  -0.0323052
    2   0.0310296  -0.0045794  -0.0334978   0.0097025   0.0187859   0.0402586
    3   0.0044161  -0.0197930   0.0164057  -0.0107262   0.0039906  -0.0381409
            7           8           9          10
    1  -0.0160982   0.0214285   0.0074463  -0.0174417
    2  -0.0271540  -0.0193399   0.0163381  -0.0315435
    3   0.0136253   0.0206345  -0.0068144   0.0164024
 Max gradient component =       6.654E-02
 RMS gradient           =       2.680E-02
drvman.C: 248: out of SCF_Grad for normal SCF gradient
 Gradient time:  CPU 0.44 s  wall 0.45 s
 ------------------------------------------------------------------------------
                     drvman        : Timing summary (seconds)
 ------------------------------------------------------------------------------
     job step          cpu (% of tot)      sys (% of tot)     wall (% of tot)
 ------------------------------------------------------------------------------
 ------------------------------------------------------------------------------
   Grand Totals     0.4440E+00          0.2000E-05          0.4464E+00
 ------------------------------------------------------------------------------
drvman_main.C: 77: out of DrvMan  Time for this dynamics step: 2.7 s (CPU) 2.7 s (wall)

TIME STEP #5 (t = 80.000 a.u. = 1.93511 fs)
--------------------------------------
 Instantaneous Temperature = 308.2 K
 ----------------------------------------------------------------
             Standard Nuclear Orientation (Angstroms)
    I     Atom           X                Y                Z
 ----------------------------------------------------------------
    1      C       5.3629002146     0.6219357662     0.0491963253
    2      C       4.0767777760     0.3058537141    -0.1636804398
    3      H       6.0369421278    -0.1015130380     0.5966731894
    4      H       5.7289424547     1.5190994833    -0.4586246777
    5      C       3.1775675502     1.0770466814    -0.9980910201
    6      C       1.8987340870     0.7838043315    -1.2175655408
    7      H       1.3945770903    -0.1097162039    -0.7623793969
    8      H       1.3027017868     1.3825851080    -1.8351122229
    9      H       3.6635620037    -0.5648090639     0.2846957307
   10      H       3.5683187707     1.9325709863    -1.4514476191
 ----------------------------------------------------------------
 Nuclear Repulsion Energy =   104.1260477148 hartrees
 There are       15 alpha and       15 beta electrons

                       Distance Matrix (Angstroms)
             C (  1)   C (  2)   H (  3)   H (  4)   C (  5)   C (  6)
   C (  2)  1.341393
   H (  3)  1.130240  2.141572
   H (  4)  1.093971  2.070895  1.958291
   C (  5)  2.465688  1.448985  3.479698  2.644986
   C (  6)  3.692064  2.466371  4.604347  3.973304  1.330254
   H (  7)  4.116012  2.779449  4.837215  4.640262  2.154767  1.122385
   H (  8)  4.540310  3.412995  5.525320  4.637344  2.075832  1.046497
   H (  9)  2.086043  1.062940  2.438218  3.026714  2.139491  2.681448
   H ( 10)  2.681458  2.136138  3.798210  2.413493  1.044098  2.040068
             H (  7)   H (  8)   H (  9)
   H (  8)  1.840152
   H (  9)  2.540033  3.722847
   H ( 10)  3.061193  2.362774  3.043053

 Applying Cartesian multipole field
    Component          Value
    ---------          -----
     (2,0,0)        1.00000E-12
     (0,2,0)        2.00000E-11
     (0,0,2)       -3.00000E-11
 Nucleus-field energy     =     0.0000000008 hartrees
 ENuRep (before)= 104.1260477148
 ENucField = 0.0000000008
 ENuRep (after) = 104.1260477156
 Job number = 2, Threshold = 1.00E-11
Integral type ranges set in mkLRange.C for JobNum: 2  <1-6|1-6>
Symmetry turned off temporarily
Symmetry turned back on
 Job number = 11, Threshold = 1.00E-11
Integral type ranges set in mkLRange.C for JobNum: 11  <1-6|7-7>
 Smallest overlap matrix eigenvalue = 1.81E-01
 Multipole matrices computed through 2nd order
 Guess from superposition of atomic densities
 Warning:  Energy on first SCF cycle will be non-variational
 SAD guess density has 30.000000 electrons
 SCF convergence criterion is 10**(-8)
 A restricted Hartree-Fock SCF calculation will be
 performed using Pulay DIIS extrapolation
 SCF converges when DIIS error is below 1.0E-08
Finding J and K together
 Job number = 22, Threshold = 1.00E-11
Integral type ranges set in mkLRange.C for JobNum: 22  <1-6|1-6>
 MakeJK  time:  CPU       0.14 s  wall       0.14 s
Fock build time:  0.14 s (CPU) 0.14 s (wall)
DIIS Errors:  Max 1.11E+00 RMS 2.16E-01

Current DIIS subspace size = 1
REM_GRID_RESTART_DIIS = 0

 ---------------------------------------
  Cycle       Energy         DIIS Error
 ---------------------------------------
    1    -152.6642487817      2.16E-01  00000
Finding J and K together
 Job number = 22, Threshold = 1.00E-11
Integral type ranges set in mkLRange.C for JobNum: 22  <1-6|1-6>
 MakeJK  time:  CPU       0.19 s  wall       0.19 s
Fock build time:  0.19 s (CPU) 0.19 s (wall)
DIIS Errors:  Max 6.89E-02 RMS 1.28E-02

Current DIIS subspace size = 2
REM_GRID_RESTART_DIIS = 0

    2    -152.9822409450      1.28E-02  00000
Finding J and K together
 Job number = 22, Threshold = 1.00E-11
Integral type ranges set in mkLRange.C for JobNum: 22  <1-6|1-6>
 MakeJK  time:  CPU       0.15 s  wall       0.15 s
Fock build time:  0.15 s (CPU) 0.15 s (wall)
DIIS Errors:  Max 2.02E-02 RMS 3.36E-03

Current DIIS subspace size = 3
REM_GRID_RESTART_DIIS = 0

    3    -153.0061884550      3.36E-03  00000
Finding J and K together
 Job number = 22, Threshold = 1.00E-11
Integral type ranges set in mkLRange.C for JobNum: 22  <1-6|1-6>
 MakeJK  time:  CPU       0.11 s  wall       0.11 s
Fock build time:  0.11 s (CPU) 0.11 s (wall)
DIIS Errors:  Max 5.49E-03 RMS 9.26E-04

Current DIIS subspace size = 4
REM_GRID_RESTART_DIIS = 0

    4    -153.0079652673      9.26E-04  00000
Finding J and K together
 Job number = 22, Threshold = 1.00E-11
Integral type ranges set in mkLRange.C for JobNum: 22  <1-6|1-6>
 MakeJK  time:  CPU       0.11 s  wall       0.12 s
Fock build time:  0.11 s (CPU) 0.12 s (wall)
DIIS Errors:  Max 6.99E-04 RMS 9.67E-05

Current DIIS subspace size = 5
REM_GRID_RESTART_DIIS = 0

    5    -153.0080547069      9.67E-05  00000
Finding J and K together
 Job number = 22, Threshold = 1.00E-11
Integral type ranges set in mkLRange.C for JobNum: 22  <1-6|1-6>
 MakeJK  time:  CPU       0.19 s  wall       0.19 s
Fock build time:  0.19 s (CPU) 0.19 s (wall)
DIIS Errors:  Max 1.09E-04 RMS 1.97E-05

Current DIIS subspace size = 6
REM_GRID_RESTART_DIIS = 0

    6    -153.0080577821      1.97E-05  00000
Finding J and K together
 Job number = 22, Threshold = 1.00E-11
Integral type ranges set in mkLRange.C for JobNum: 22  <1-6|1-6>
 MakeJK  time:  CPU       0.20 s  wall       0.19 s
Fock build time:  0.20 s (CPU) 0.19 s (wall)
DIIS Errors:  Max 3.28E-05 RMS 6.29E-06

Current DIIS subspace size = 7
REM_GRID_RESTART_DIIS = 0

    7    -153.0080578608      6.29E-06  00000
Finding J and K together
 Job number = 22, Threshold = 1.00E-11
Integral type ranges set in mkLRange.C for JobNum: 22  <1-6|1-6>
 MakeJK  time:  CPU       0.20 s  wall       0.19 s
Fock build time:  0.20 s (CPU) 0.19 s (wall)
DIIS Errors:  Max 6.45E-06 RMS 1.08E-06

Current DIIS subspace size = 8
REM_GRID_RESTART_DIIS = 0

    8    -153.0080578677      1.08E-06  00000
Finding J and K together
 Job number = 22, Threshold = 1.00E-11
Integral type ranges set in mkLRange.C for JobNum: 22  <1-6|1-6>
 MakeJK  time:  CPU       0.19 s  wall       0.19 s
Fock build time:  0.19 s (CPU) 0.19 s (wall)
DIIS Errors:  Max 2.04E-06 RMS 3.52E-07

Current DIIS subspace size = 9
REM_GRID_RESTART_DIIS = 0

    9    -153.0080578679      3.52E-07  00000
Finding J and K together
 Job number = 22, Threshold = 1.00E-11
Integral type ranges set in mkLRange.C for JobNum: 22  <1-6|1-6>
 MakeJK  time:  CPU       0.19 s  wall       0.19 s
Fock build time:  0.19 s (CPU) 0.19 s (wall)
DIIS Errors:  Max 4.12E-07 RMS 7.39E-08

Current DIIS subspace size = 10
REM_GRID_RESTART_DIIS = 0

   10    -153.0080578680      7.39E-08  00000
Finding J and K together
 Job number = 22, Threshold = 1.00E-11
Integral type ranges set in mkLRange.C for JobNum: 22  <1-6|1-6>
 MakeJK  time:  CPU       0.19 s  wall       0.20 s
Fock build time:  0.19 s (CPU) 0.20 s (wall)
DIIS Errors:  Max 6.61E-08 RMS 1.25E-08

Current DIIS subspace size = 11
REM_GRID_RESTART_DIIS = 0

   11    -153.0080578680      1.25E-08  00000
Finding J and K together
 Job number = 22, Threshold = 1.00E-11
Integral type ranges set in mkLRange.C for JobNum: 22  <1-6|1-6>
 MakeJK  time:  CPU       0.19 s  wall       0.19 s
Fock build time:  0.19 s (CPU) 0.19 s (wall)
DIIS Errors:  Max 2.56E-08 RMS 4.57E-09

Current DIIS subspace size = 12
REM_GRID_RESTART_DIIS = 0

   12    -153.0080578680      4.57E-09  00000 Convergence criterion met
 ---------------------------------------
 SCF time:  CPU 2.08 s  wall 2.09 s
 SCF   energy in the final basis set = -153.00805787
 Total energy in the final basis set = -153.00805787
drvman_main.C: 73: calling DrvMan  Calculating analytic gradient of the SCF energy
drvman.C : 218: Calculating analytic gradient of the SCF energy
drvman.C: 244: calling SCF_Grad for normal SCF gradient
 Job number = 111, Threshold = 1.00E-11
Integral type ranges set in mkLRange.C for JobNum: 11  <1-6|7-7>
Finding J and K together
 ML is being used
 Job number = 122, Threshold = 1.00E-11
Integral type ranges set in mkLRange.C for JobNum: 22  <1-6|1-6>
 MakeJK  time:  CPU       0.49 s  wall       0.49 s
 Gradient of SCF Energy
            1           2           3           4           5           6
    1   0.0258446  -0.0593206   0.0184941  -0.0110825   0.0594148  -0.0271533
    2   0.0307653  -0.0040041  -0.0361069   0.0106768   0.0174821   0.0426277
    3   0.0080953  -0.0185737   0.0156730  -0.0123111   0.0011962  -0.0381624
            7           8           9          10
    1  -0.0167587   0.0210448   0.0072984  -0.0177815
    2  -0.0270050  -0.0198008   0.0179060  -0.0325411
    3   0.0134785   0.0209635  -0.0076311   0.0172719
 Max gradient component =       5.941E-02
 RMS gradient           =       2.599E-02
drvman.C: 248: out of SCF_Grad for normal SCF gradient
 Gradient time:  CPU 0.51 s  wall 0.51 s
 ------------------------------------------------------------------------------
                     drvman        : Timing summary (seconds)
 ------------------------------------------------------------------------------
     job step          cpu (% of tot)      sys (% of tot)     wall (% of tot)
 ------------------------------------------------------------------------------
 ------------------------------------------------------------------------------
   Grand Totals     0.5120E+00          0.2000E-05          0.5137E+00
 ------------------------------------------------------------------------------
drvman_main.C: 77: out of DrvMan  Time for this dynamics step: 2.6 s (CPU) 2.6 s (wall)

TIME STEP #6 (t = 100.000 a.u. = 2.41888 fs)
--------------------------------------
 Instantaneous Temperature = 291.3 K
 ----------------------------------------------------------------
             Standard Nuclear Orientation (Angstroms)
    I     Atom           X                Y                Z
 ----------------------------------------------------------------
    1      C       5.3650776736     0.6204414755     0.0505798536
    2      C       4.0801219781     0.3074791971    -0.1606692410
    3      H       6.0434891752    -0.1112858275     0.5772873195
    4      H       5.7175299202     1.5173206062    -0.4688695287
    5      C       3.1738005448     1.0742089983    -0.9984797111
    6      C       1.8982264619     0.7862259426    -1.2182964358
    7      H       1.3882433796    -0.0999261270    -0.7649347530
    8      H       1.3012584780     1.3863770875    -1.8412420142
    9      H       3.6604222078    -0.5620533286     0.2869497775
   10      H       3.5692529656     1.9311768581    -1.4543821497
 ----------------------------------------------------------------
 Nuclear Repulsion Energy =   104.1125616940 hartrees
 There are       15 alpha and       15 beta electrons

                       Distance Matrix (Angstroms)
             C (  1)   C (  2)   H (  3)   H (  4)   C (  5)   C (  6)
   C (  2)  1.339284
   H (  3)  1.128312  2.138868
   H (  4)  1.094734  2.059080  1.962919
   C (  5)  2.471462  1.453004  3.481889  2.635791
   C (  6)  3.695482  2.471526  4.605741  3.960204  1.326025
   H (  7)  4.123009  2.788786  4.844894  4.630968  2.149733  1.118430
   H (  8)  4.547557  3.422050  5.530012  4.626446  2.077044  1.051006
   H (  9)  2.088065  1.064236  2.442641  3.021051  2.136933  2.681223
   H ( 10)  2.684758  2.138007  3.797523  2.399501  1.048152  2.039357
             H (  7)   H (  8)   H (  9)
   H (  8)  1.837145
   H (  9)  2.546138  3.727095
   H ( 10)  3.059006  2.364374  3.042490

 Applying Cartesian multipole field
    Component          Value
    ---------          -----
     (2,0,0)        1.00000E-12
     (0,2,0)        2.00000E-11
     (0,0,2)       -3.00000E-11
 Nucleus-field energy     =     0.0000000008 hartrees
 ENuRep (before)= 104.1125616940
 ENucField = 0.0000000008
 ENuRep (after) = 104.1125616949
 Job number = 2, Threshold = 1.00E-11
Integral type ranges set in mkLRange.C for JobNum: 2  <1-6|1-6>
Symmetry turned off temporarily
Symmetry turned back on
 Job number = 11, Threshold = 1.00E-11
Integral type ranges set in mkLRange.C for JobNum: 11  <1-6|7-7>
 Smallest overlap matrix eigenvalue = 1.81E-01
 Multipole matrices computed through 2nd order
 Guess from superposition of atomic densities
 Warning:  Energy on first SCF cycle will be non-variational
 SAD guess density has 30.000000 electrons
 SCF convergence criterion is 10**(-8)
 A restricted Hartree-Fock SCF calculation will be
 performed using Pulay DIIS extrapolation
 SCF converges when DIIS error is below 1.0E-08
Finding J and K together
 Job number = 22, Threshold = 1.00E-11
Integral type ranges set in mkLRange.C for JobNum: 22  <1-6|1-6>
 MakeJK  time:  CPU       0.13 s  wall       0.13 s
Fock build time:  0.13 s (CPU) 0.13 s (wall)
DIIS Errors:  Max 1.12E+00 RMS 2.16E-01

Current DIIS subspace size = 1
REM_GRID_RESTART_DIIS = 0

 ---------------------------------------
  Cycle       Energy         DIIS Error
 ---------------------------------------
    1    -152.6665051904      2.16E-01  00000
Finding J and K together
 Job number = 22, Threshold = 1.00E-11
Integral type ranges set in mkLRange.C for JobNum: 22  <1-6|1-6>
 MakeJK  time:  CPU       0.14 s  wall       0.14 s
Fock build time:  0.14 s (CPU) 0.14 s (wall)
DIIS Errors:  Max 6.90E-02 RMS 1.28E-02

Current DIIS subspace size = 2
REM_GRID_RESTART_DIIS = 0

    2    -152.9827995342      1.28E-02  00000
Finding J and K together
 Job number = 22, Threshold = 1.00E-11
Integral type ranges set in mkLRange.C for JobNum: 22  <1-6|1-6>
 MakeJK  time:  CPU       0.15 s  wall       0.15 s
Fock build time:  0.15 s (CPU) 0.15 s (wall)
DIIS Errors:  Max 2.02E-02 RMS 3.35E-03

Current DIIS subspace size = 3
REM_GRID_RESTART_DIIS = 0

    3    -153.0067496748      3.35E-03  00000
Finding J and K together
 Job number = 22, Threshold = 1.00E-11
Integral type ranges set in mkLRange.C for JobNum: 22  <1-6|1-6>
 MakeJK  time:  CPU       0.17 s  wall       0.17 s
Fock build time:  0.17 s (CPU) 0.17 s (wall)
DIIS Errors:  Max 5.34E-03 RMS 9.07E-04

Current DIIS subspace size = 4
REM_GRID_RESTART_DIIS = 0

    4    -153.0085216767      9.07E-04  00000
Finding J and K together
 Job number = 22, Threshold = 1.00E-11
Integral type ranges set in mkLRange.C for JobNum: 22  <1-6|1-6>
 MakeJK  time:  CPU       0.19 s  wall       0.19 s
Fock build time:  0.19 s (CPU) 0.19 s (wall)
DIIS Errors:  Max 6.86E-04 RMS 9.53E-05

Current DIIS subspace size = 5
REM_GRID_RESTART_DIIS = 0

    5    -153.0086073567      9.53E-05  00000
Finding J and K together
 Job number = 22, Threshold = 1.00E-11
Integral type ranges set in mkLRange.C for JobNum: 22  <1-6|1-6>
 MakeJK  time:  CPU       0.12 s  wall       0.12 s
Fock build time:  0.12 s (CPU) 0.12 s (wall)
DIIS Errors:  Max 1.11E-04 RMS 1.99E-05

Current DIIS subspace size = 6
REM_GRID_RESTART_DIIS = 0

    6    -153.0086102779      1.99E-05  00000
Finding J and K together
 Job number = 22, Threshold = 1.00E-11
Integral type ranges set in mkLRange.C for JobNum: 22  <1-6|1-6>
 MakeJK  time:  CPU       0.12 s  wall       0.12 s
Fock build time:  0.12 s (CPU) 0.12 s (wall)
DIIS Errors:  Max 3.04E-05 RMS 6.37E-06

Current DIIS subspace size = 7
REM_GRID_RESTART_DIIS = 0

    7    -153.0086103584      6.37E-06  00000
Finding J and K together
 Job number = 22, Threshold = 1.00E-11
Integral type ranges set in mkLRange.C for JobNum: 22  <1-6|1-6>
 MakeJK  time:  CPU       0.16 s  wall       0.16 s
Fock build time:  0.16 s (CPU) 0.16 s (wall)
DIIS Errors:  Max 5.84E-06 RMS 1.09E-06

Current DIIS subspace size = 8
REM_GRID_RESTART_DIIS = 0

    8    -153.0086103654      1.09E-06  00000
Finding J and K together
 Job number = 22, Threshold = 1.00E-11
Integral type ranges set in mkLRange.C for JobNum: 22  <1-6|1-6>
 MakeJK  time:  CPU       0.19 s  wall       0.19 s
Fock build time:  0.20 s (CPU) 0.19 s (wall)
DIIS Errors:  Max 2.28E-06 RMS 3.61E-07

Current DIIS subspace size = 9
REM_GRID_RESTART_DIIS = 0

    9    -153.0086103657      3.61E-07  00000
Finding J and K together
 Job number = 22, Threshold = 1.00E-11
Integral type ranges set in mkLRange.C for JobNum: 22  <1-6|1-6>
 MakeJK  time:  CPU       0.19 s  wall       0.19 s
Fock build time:  0.19 s (CPU) 0.19 s (wall)
DIIS Errors:  Max 3.53E-07 RMS 6.21E-08

Current DIIS subspace size = 10
REM_GRID_RESTART_DIIS = 0

   10    -153.0086103657      6.21E-08  00000
Finding J and K together
 Job number = 22, Threshold = 1.00E-11
Integral type ranges set in mkLRange.C for JobNum: 22  <1-6|1-6>
 MakeJK  time:  CPU       0.16 s  wall       0.17 s
Fock build time:  0.16 s (CPU) 0.17 s (wall)
DIIS Errors:  Max 5.37E-08 RMS 1.04E-08

Current DIIS subspace size = 11
REM_GRID_RESTART_DIIS = 0

   11    -153.0086103657      1.04E-08  00000
Finding J and K together
 Job number = 22, Threshold = 1.00E-11
Integral type ranges set in mkLRange.C for JobNum: 22  <1-6|1-6>
 MakeJK  time:  CPU       0.18 s  wall       0.19 s
Fock build time:  0.18 s (CPU) 0.19 s (wall)
DIIS Errors:  Max 1.52E-08 RMS 3.01E-09

Current DIIS subspace size = 12
REM_GRID_RESTART_DIIS = 0

   12    -153.0086103657      3.01E-09  00000 Convergence criterion met
 ---------------------------------------
 SCF time:  CPU 1.93 s  wall 1.94 s
 SCF   energy in the final basis set = -153.00861037
 Total energy in the final basis set = -153.00861037
drvman_main.C: 73: calling DrvMan  Calculating analytic gradient of the SCF energy
drvman.C : 218: Calculating analytic gradient of the SCF energy
drvman.C: 244: calling SCF_Grad for normal SCF gradient
 Job number = 111, Threshold = 1.00E-11
Integral type ranges set in mkLRange.C for JobNum: 11  <1-6|7-7>
Finding J and K together
 ML is being used
 Job number = 122, Threshold = 1.00E-11
Integral type ranges set in mkLRange.C for JobNum: 22  <1-6|1-6>
 MakeJK  time:  CPU       0.42 s  wall       0.42 s
 Gradient of SCF Energy
            1           2           3           4           5           6
    1   0.0257207  -0.0515024   0.0177091  -0.0130519   0.0485150  -0.0192945
    2   0.0285216  -0.0012893  -0.0364164   0.0111330   0.0116171   0.0395927
    3   0.0126752  -0.0179168   0.0133596  -0.0134731   0.0003416  -0.0335076
            7           8           9          10
    1  -0.0159322   0.0176987   0.0060620  -0.0159244
    2  -0.0242158  -0.0173032   0.0173622  -0.0290019
    3   0.0119671   0.0182175  -0.0074239   0.0157603
 Max gradient component =       5.150E-02
 RMS gradient           =       2.318E-02
drvman.C: 248: out of SCF_Grad for normal SCF gradient
 Gradient time:  CPU 0.44 s  wall 0.44 s
 ------------------------------------------------------------------------------
                     drvman        : Timing summary (seconds)
 ------------------------------------------------------------------------------
     job step          cpu (% of tot)      sys (% of tot)     wall (% of tot)
 ------------------------------------------------------------------------------
 ------------------------------------------------------------------------------
   Grand Totals     0.4440E+00          0.0000E+00          0.4448E+00
 ------------------------------------------------------------------------------
drvman_main.C: 77: out of DrvMan  Time for this dynamics step: 2.4 s (CPU) 2.4 s (wall)

TIME STEP #7 (t = 120.000 a.u. = 2.90266 fs)
--------------------------------------
 Instantaneous Temperature = 302.3 K
 ----------------------------------------------------------------
             Standard Nuclear Orientation (Angstroms)
    I     Atom           X                Y                Z
 ----------------------------------------------------------------
    1      C       5.3670062457     0.6186711949     0.0518407299
    2      C       4.0839645452     0.3091171560    -0.1574846700
    3      H       6.0479958514    -0.1168628578     0.5563622021
    4      H       5.7076211780     1.5142590245    -0.4775620613
    5      C       3.1695640821     1.0712589020    -0.9988717076
    6      C       1.8979055406     0.7882644340    -1.2187030935
    7      H       1.3837453186    -0.0873459941    -0.7688689113
    8      H       1.2977759912     1.3921626759    -1.8494707581
    9      H       3.6565839756    -0.5612980039     0.2900591748
   10      H       3.5720219081     1.9331242173    -1.4591325211
 ----------------------------------------------------------------
 Nuclear Repulsion Energy =   104.0949646886 hartrees
 There are       15 alpha and       15 beta electrons

                       Distance Matrix (Angstroms)
             C (  1)   C (  2)   H (  3)   H (  4)   C (  5)   C (  6)
   C (  2)  1.336352
   H (  3)  1.122185  2.132711
   H (  4)  1.094698  2.047212  1.960972
   C (  5)  2.477415  1.457711  3.480769  2.628640
   C (  6)  3.698338  2.476817  4.603625  3.948454  1.321184
[...]
 Max gradient component =       3.202E-02
 RMS gradient           =       1.590E-02
drvman.C: 248: out of SCF_Grad for normal SCF gradient
 Gradient time:  CPU 0.53 s  wall 0.56 s
 ------------------------------------------------------------------------------
                     drvman        : Timing summary (seconds)
 ------------------------------------------------------------------------------
     job step          cpu (% of tot)      sys (% of tot)     wall (% of tot)
 ------------------------------------------------------------------------------
 ------------------------------------------------------------------------------
   Grand Totals     0.5320E+00          0.2000E-05          0.5624E+00
 ------------------------------------------------------------------------------
drvman_main.C: 77: out of DrvMan  Time for this dynamics step: 2.1 s (CPU) 2.2 s (wall)

TIME STEP #399 (t = 7960.000 a.u. = 192.54319 fs)
--------------------------------------
 Instantaneous Temperature = 301.4 K
 ----------------------------------------------------------------
             Standard Nuclear Orientation (Angstroms)
    I     Atom           X                Y                Z
 ----------------------------------------------------------------
    1      C       5.3731943483     0.0625370524    -0.3006624058
    2      C       4.1099882180     0.4615669542    -0.1091692686
    3      H       5.9197521372    -0.2259387215     0.6296003728
    4      H       6.0151496048     0.1223336836    -1.1925336620
    5      C       3.1170825229     0.8779961105    -1.0884164275
    6      C       1.8920329224     1.3627066051    -0.8626043022
    7      H       1.4473248622     1.3556027646     0.1662100204
    8      H       1.3228239627     1.7094107927    -1.6980506425
    9      H       3.7287930955     0.4615217628     0.9267906153
   10      H       3.5431721274     0.9190702190    -2.0925342134
 ----------------------------------------------------------------
 Nuclear Repulsion Energy =   102.9575374820 hartrees
 There are       15 alpha and       15 beta electrons

                       Distance Matrix (Angstroms)
             C (  1)   C (  2)   H (  3)   H (  4)   C (  5)   C (  6)
   C (  2)  1.338501
   H (  3)  1.116840  2.072122
   H (  4)  1.100507  2.217746  1.857570
   C (  5)  2.524989  1.455404  3.467739  2.996775
   C (  6)  3.758285  2.509789  4.579628  4.318272  1.336668
   H (  7)  4.159620  2.822217  4.766404  4.922617  2.142495  1.120837
   H (  8)  4.590249  3.442375  5.504115  4.979185  2.069364  1.068725
   H (  9)  2.090427  1.103867  2.315432  3.135923  2.146788  2.718043
   H ( 10)  2.700636  2.112895  3.790672  2.748720  1.091555  2.106134
             H (  7)   H (  8)   H (  9)
   H (  8)  1.901617
   H (  9)  2.565728  3.773023
   H ( 10)  3.112083  2.389603  3.059433

 Applying Cartesian multipole field
    Component          Value
    ---------          -----
     (2,0,0)        1.00000E-12
     (0,2,0)        2.00000E-11
     (0,0,2)       -3.00000E-11
 Nucleus-field energy     =     0.0000000009 hartrees
 ENuRep (before)= 102.9575374820
 ENucField = 0.0000000009
 ENuRep (after) = 102.9575374829
 Job number = 2, Threshold = 1.00E-11
Integral type ranges set in mkLRange.C for JobNum: 2  <1-6|1-6>
Symmetry turned off temporarily
Symmetry turned back on
 Job number = 11, Threshold = 1.00E-11
Integral type ranges set in mkLRange.C for JobNum: 11  <1-6|7-7>
 Smallest overlap matrix eigenvalue = 1.88E-01
 Multipole matrices computed through 2nd order
 Extrapolating the Fock matrix using 12 points and a 6th-order polynomial
 Alpha Fock matrix extrapolation
 Skip SCF guess (diagonalize extrapolated Fock matrix instead)
 SCF convergence criterion is 10**(-8)
 A restricted Hartree-Fock SCF calculation will be
 performed using Pulay DIIS extrapolation
 SCF converges when DIIS error is below 1.0E-08
Extrapolated Fock matrix used in lieu of Fock build
Fock build time:  0.00 s (CPU) 0.00 s (wall)
DIIS Errors:  Max 2.39E-02 RMS 2.83E-03

Current DIIS subspace size = 1
REM_GRID_RESTART_DIIS = 0

 ---------------------------------------
  Cycle       Energy         DIIS Error
 ---------------------------------------
    1    -307.2135960029      2.83E-03  00000
Finding J and K together
 Job number = 22, Threshold = 1.00E-11
Integral type ranges set in mkLRange.C for JobNum: 22  <1-6|1-6>
 MakeJK  time:  CPU       0.20 s  wall       0.20 s
Fock build time:  0.20 s (CPU) 0.20 s (wall)
DIIS Errors:  Max 2.87E-03 RMS 3.01E-04

Current DIIS subspace size = 2
REM_GRID_RESTART_DIIS = 0

    2    -153.0060060280      3.01E-04  00000
Finding J and K together
 Job number = 22, Threshold = 1.00E-11
Integral type ranges set in mkLRange.C for JobNum: 22  <1-6|1-6>
 MakeJK  time:  CPU       0.20 s  wall       0.20 s
Fock build time:  0.20 s (CPU) 0.20 s (wall)
DIIS Errors:  Max 1.82E-04 RMS 2.45E-05

Current DIIS subspace size = 3
REM_GRID_RESTART_DIIS = 0

    3    -153.0060077820      2.45E-05  00000
Finding J and K together
 Job number = 22, Threshold = 1.00E-11
Integral type ranges set in mkLRange.C for JobNum: 22  <1-6|1-6>
 MakeJK  time:  CPU       0.19 s  wall       0.19 s
Fock build time:  0.19 s (CPU) 0.19 s (wall)
DIIS Errors:  Max 2.37E-05 RMS 4.54E-06

Current DIIS subspace size = 4
REM_GRID_RESTART_DIIS = 0

    4    -153.0060078184      4.54E-06  00000
Finding J and K together
 Job number = 22, Threshold = 1.00E-11
Integral type ranges set in mkLRange.C for JobNum: 22  <1-6|1-6>
 MakeJK  time:  CPU       0.20 s  wall       0.21 s
Fock build time:  0.20 s (CPU) 0.21 s (wall)
DIIS Errors:  Max 1.08E-05 RMS 2.00E-06

Current DIIS subspace size = 5
REM_GRID_RESTART_DIIS = 0

    5    -153.0060078209      2.00E-06  00000
Finding J and K together
 Job number = 22, Threshold = 1.00E-11
Integral type ranges set in mkLRange.C for JobNum: 22  <1-6|1-6>
 MakeJK  time:  CPU       0.20 s  wall       0.20 s
Fock build time:  0.20 s (CPU) 0.20 s (wall)
DIIS Errors:  Max 1.63E-06 RMS 2.87E-07

Current DIIS subspace size = 6
REM_GRID_RESTART_DIIS = 0

    6    -153.0060078215      2.87E-07  00000
Finding J and K together
 Job number = 22, Threshold = 1.00E-11
Integral type ranges set in mkLRange.C for JobNum: 22  <1-6|1-6>
 MakeJK  time:  CPU       0.20 s  wall       0.20 s
Fock build time:  0.20 s (CPU) 0.20 s (wall)
DIIS Errors:  Max 6.24E-07 RMS 1.05E-07

Current DIIS subspace size = 7
REM_GRID_RESTART_DIIS = 0

    7    -153.0060078215      1.05E-07  00000
Finding J and K together
 Job number = 22, Threshold = 1.00E-11
Integral type ranges set in mkLRange.C for JobNum: 22  <1-6|1-6>
 MakeJK  time:  CPU       0.20 s  wall       0.20 s
Fock build time:  0.20 s (CPU) 0.20 s (wall)
DIIS Errors:  Max 1.97E-07 RMS 2.46E-08

Current DIIS subspace size = 8
REM_GRID_RESTART_DIIS = 0

    8    -153.0060078215      2.46E-08  00000
Finding J and K together
 Job number = 22, Threshold = 1.00E-11
Integral type ranges set in mkLRange.C for JobNum: 22  <1-6|1-6>
 MakeJK  time:  CPU       0.20 s  wall       0.20 s
Fock build time:  0.20 s (CPU) 0.20 s (wall)
DIIS Errors:  Max 6.22E-08 RMS 1.01E-08

Current DIIS subspace size = 9
REM_GRID_RESTART_DIIS = 0

    9    -153.0060078215      1.01E-08  00000
Finding J and K together
 Job number = 22, Threshold = 1.00E-11
Integral type ranges set in mkLRange.C for JobNum: 22  <1-6|1-6>
 MakeJK  time:  CPU       0.19 s  wall       0.19 s
Fock build time:  0.19 s (CPU) 0.19 s (wall)
DIIS Errors:  Max 1.24E-08 RMS 2.07E-09

Current DIIS subspace size = 10
REM_GRID_RESTART_DIIS = 0

   10    -153.0060078215      2.07E-09  00000 Convergence criterion met
 ---------------------------------------
 SCF time:  CPU 1.78 s  wall 1.80 s
 SCF   energy in the final basis set = -153.00600782
 Total energy in the final basis set = -153.00600782
drvman_main.C: 73: calling DrvMan  Calculating analytic gradient of the SCF energy
drvman.C : 218: Calculating analytic gradient of the SCF energy
drvman.C: 244: calling SCF_Grad for normal SCF gradient
 Job number = 111, Threshold = 1.00E-11
Integral type ranges set in mkLRange.C for JobNum: 11  <1-6|7-7>
Finding J and K together
 ML is being used
 Job number = 122, Threshold = 1.00E-11
Integral type ranges set in mkLRange.C for JobNum: 22  <1-6|1-6>
 MakeJK  time:  CPU       0.51 s  wall       0.51 s
 Gradient of SCF Energy
            1           2           3           4           5           6
    1   0.0020391  -0.0245755   0.0084502   0.0222110   0.0166974  -0.0331762
    2  -0.0143551   0.0233281  -0.0057427   0.0056181  -0.0342673   0.0281211
    3  -0.0364294  -0.0322059   0.0270422  -0.0048426   0.0278453  -0.0310576
            7           8           9          10
    1  -0.0096215   0.0141725  -0.0079772   0.0117803
    2  -0.0044879  -0.0052172   0.0054970   0.0015059
    3   0.0324459   0.0034641   0.0136847   0.0000533
 Max gradient component =       3.643E-02
 RMS gradient           =       2.002E-02
drvman.C: 248: out of SCF_Grad for normal SCF gradient
 Gradient time:  CPU 0.53 s  wall 0.54 s
 ------------------------------------------------------------------------------
                     drvman        : Timing summary (seconds)
 ------------------------------------------------------------------------------
     job step          cpu (% of tot)      sys (% of tot)     wall (% of tot)
 ------------------------------------------------------------------------------
 ------------------------------------------------------------------------------
   Grand Totals     0.5320E+00          0.2000E-05          0.5362E+00
 ------------------------------------------------------------------------------
drvman_main.C: 77: out of DrvMan  Time for this dynamics step: 2.3 s (CPU) 2.4 s (wall)

TIME STEP #400 (t = 7980.000 a.u. = 193.02697 fs)
--------------------------------------
 Instantaneous Temperature = 246.3 K
 ----------------------------------------------------------------
             Standard Nuclear Orientation (Angstroms)
    I     Atom           X                Y                Z
 ----------------------------------------------------------------
    1      C       5.3719410021     0.0595779600    -0.3030083686
    2      C       4.1101676816     0.4626328972    -0.1096793446
    3      H       5.9252088048    -0.2161754067     0.6341013794
    4      H       6.0102208252     0.1229393158    -1.1945463917
    5      C       3.1177019546     0.8768535412    -1.0850504216
    6      C       1.8905158148     1.3650193280    -0.8647625847
    7      H       1.4485078176     1.3484669363     0.1821864031
    8      H       1.3316500250     1.7146885407    -1.7003639916
    9      H       3.7345626101     0.4663552496     0.9324668123
   10      H       3.5503406021     0.9143344106    -2.0947356088
 ----------------------------------------------------------------
 Nuclear Repulsion Energy =   102.8870706191 hartrees
 There are       15 alpha and       15 beta electrons

                       Distance Matrix (Angstroms)
             C (  1)   C (  2)   H (  3)   H (  4)   C (  5)   C (  6)
   C (  2)  1.338619
   H (  3)  1.122640  2.075660
   H (  4)  1.098297  2.214166  1.861768
   C (  5)  2.522127  1.451866  3.468759  2.991161
   C (  6)  3.760328  2.512231  4.585359  4.315494  1.338962
   H (  7)  4.158122  2.820341  4.763736  4.920014  2.148143  1.136551
   H (  8)  4.584315  3.437744  5.502613  4.967750  2.066533  1.064345
   H (  9)  2.091142  1.107773  2.313828  3.133806  2.149279  2.727295
   H ( 10)  2.694276  2.111371  3.790066  2.736358  1.099111  2.114467
             H (  7)   H (  8)   H (  9)
   H (  8)  1.921398
   H (  9)  2.562633  3.776787
   H ( 10)  3.128985  2.391377  3.065710

 Applying Cartesian multipole field
    Component          Value
    ---------          -----
     (2,0,0)        1.00000E-12
     (0,2,0)        2.00000E-11
     (0,0,2)       -3.00000E-11
 Nucleus-field energy     =     0.0000000009 hartrees
 ENuRep (before)= 102.8870706191
 ENucField = 0.0000000009
 ENuRep (after) = 102.8870706200
 Job number = 2, Threshold = 1.00E-11
Integral type ranges set in mkLRange.C for JobNum: 2  <1-6|1-6>
Symmetry turned off temporarily
Symmetry turned back on
 Job number = 11, Threshold = 1.00E-11
Integral type ranges set in mkLRange.C for JobNum: 11  <1-6|7-7>
 Smallest overlap matrix eigenvalue = 1.89E-01
 Multipole matrices computed through 2nd order
 Extrapolating the Fock matrix using 12 points and a 6th-order polynomial
 Alpha Fock matrix extrapolation
 Skip SCF guess (diagonalize extrapolated Fock matrix instead)
 SCF convergence criterion is 10**(-8)
 A restricted Hartree-Fock SCF calculation will be
 performed using Pulay DIIS extrapolation
 SCF converges when DIIS error is below 1.0E-08
Extrapolated Fock matrix used in lieu of Fock build
Fock build time:  0.00 s (CPU) 0.00 s (wall)
DIIS Errors:  Max 2.35E-02 RMS 2.30E-03

Current DIIS subspace size = 1
REM_GRID_RESTART_DIIS = 0

 ---------------------------------------
  Cycle       Energy         DIIS Error
 ---------------------------------------
    1    -307.2039692124      2.30E-03  00000
Finding J and K together
 Job number = 22, Threshold = 1.00E-11
Integral type ranges set in mkLRange.C for JobNum: 22  <1-6|1-6>
 MakeJK  time:  CPU       0.20 s  wall       0.19 s
Fock build time:  0.20 s (CPU) 0.20 s (wall)
DIIS Errors:  Max 8.77E-03 RMS 7.41E-04

Current DIIS subspace size = 2
REM_GRID_RESTART_DIIS = 0

    2    -153.0032309045      7.41E-04  00000
Finding J and K together
 Job number = 22, Threshold = 1.00E-11
Integral type ranges set in mkLRange.C for JobNum: 22  <1-6|1-6>
 MakeJK  time:  CPU       0.20 s  wall       0.20 s
Fock build time:  0.20 s (CPU) 0.20 s (wall)
DIIS Errors:  Max 1.67E-03 RMS 1.44E-04

Current DIIS subspace size = 3
REM_GRID_RESTART_DIIS = 0

    3    -153.0032399126      1.44E-04  00000
Finding J and K together
 Job number = 22, Threshold = 1.00E-11
Integral type ranges set in mkLRange.C for JobNum: 22  <1-6|1-6>
 MakeJK  time:  CPU       0.19 s  wall       0.21 s
Fock build time:  0.19 s (CPU) 0.21 s (wall)
DIIS Errors:  Max 4.66E-05 RMS 6.13E-06

Current DIIS subspace size = 4
REM_GRID_RESTART_DIIS = 0

    4    -153.0032403441      6.13E-06  00000
Finding J and K together
 Job number = 22, Threshold = 1.00E-11
Integral type ranges set in mkLRange.C for JobNum: 22  <1-6|1-6>
 MakeJK  time:  CPU       0.18 s  wall       0.19 s
Fock build time:  0.18 s (CPU) 0.19 s (wall)
DIIS Errors:  Max 1.75E-05 RMS 3.07E-06

Current DIIS subspace size = 5
REM_GRID_RESTART_DIIS = 0

    5    -153.0032403490      3.07E-06  00000
Finding J and K together
 Job number = 22, Threshold = 1.00E-11
Integral type ranges set in mkLRange.C for JobNum: 22  <1-6|1-6>
 MakeJK  time:  CPU       0.18 s  wall       0.18 s
Fock build time:  0.18 s (CPU) 0.18 s (wall)
DIIS Errors:  Max 3.43E-06 RMS 4.36E-07

Current DIIS subspace size = 6
REM_GRID_RESTART_DIIS = 0

    6    -153.0032403500      4.36E-07  00000
Finding J and K together
 Job number = 22, Threshold = 1.00E-11
Integral type ranges set in mkLRange.C for JobNum: 22  <1-6|1-6>
 MakeJK  time:  CPU       0.20 s  wall       0.20 s
Fock build time:  0.20 s (CPU) 0.21 s (wall)
DIIS Errors:  Max 1.48E-06 RMS 1.74E-07

Current DIIS subspace size = 7
REM_GRID_RESTART_DIIS = 0

    7    -153.0032403501      1.74E-07  00000
Finding J and K together
 Job number = 22, Threshold = 1.00E-11
Integral type ranges set in mkLRange.C for JobNum: 22  <1-6|1-6>
 MakeJK  time:  CPU       0.19 s  wall       0.19 s
Fock build time:  0.19 s (CPU) 0.19 s (wall)
DIIS Errors:  Max 4.80E-07 RMS 6.30E-08

Current DIIS subspace size = 8
REM_GRID_RESTART_DIIS = 0

    8    -153.0032403501      6.30E-08  00000
Finding J and K together
 Job number = 22, Threshold = 1.00E-11
Integral type ranges set in mkLRange.C for JobNum: 22  <1-6|1-6>
 MakeJK  time:  CPU       0.20 s  wall       0.20 s
Fock build time:  0.20 s (CPU) 0.20 s (wall)
DIIS Errors:  Max 8.81E-08 RMS 1.00E-08

Current DIIS subspace size = 9
REM_GRID_RESTART_DIIS = 0

    9    -153.0032403501      1.00E-08  00000
Finding J and K together
 Job number = 22, Threshold = 1.00E-11
Integral type ranges set in mkLRange.C for JobNum: 22  <1-6|1-6>
 MakeJK  time:  CPU       0.20 s  wall       0.24 s
Fock build time:  0.20 s (CPU) 0.24 s (wall)
DIIS Errors:  Max 3.14E-08 RMS 3.86E-09

Current DIIS subspace size = 10
REM_GRID_RESTART_DIIS = 0

   10    -153.0032403501      3.86E-09  00000 Convergence criterion met
 ---------------------------------------
 SCF time:  CPU 1.76 s  wall 1.83 s
 SCF   energy in the final basis set = -153.00324035
 Total energy in the final basis set = -153.00324035
drvman_main.C: 73: calling DrvMan  Calculating analytic gradient of the SCF energy
drvman.C : 218: Calculating analytic gradient of the SCF energy
drvman.C: 244: calling SCF_Grad for normal SCF gradient
 Job number = 111, Threshold = 1.00E-11
Integral type ranges set in mkLRange.C for JobNum: 11  <1-6|7-7>
Finding J and K together
 ML is being used
 Job number = 122, Threshold = 1.00E-11
Integral type ranges set in mkLRange.C for JobNum: 22  <1-6|1-6>
 MakeJK  time:  CPU       0.50 s  wall       0.55 s
 Gradient of SCF Energy
            1           2           3           4           5           6
    1   0.0004309  -0.0250193   0.0107420   0.0208341   0.0181065  -0.0366883
    2  -0.0155299   0.0247536  -0.0057294   0.0062520  -0.0359082   0.0322519
    3  -0.0415623  -0.0381807   0.0310972  -0.0033895   0.0365935  -0.0457936
            7           8           9          10
    1  -0.0122401   0.0176683  -0.0084418   0.0146077
    2  -0.0060062  -0.0066425   0.0053782   0.0011804
    3   0.0438729   0.0061396   0.0168427  -0.0056198
 Max gradient component =       4.579E-02
 RMS gradient           =       2.369E-02
drvman.C: 248: out of SCF_Grad for normal SCF gradient
 Gradient time:  CPU 0.52 s  wall 0.63 s
 ------------------------------------------------------------------------------
                     drvman        : Timing summary (seconds)
 ------------------------------------------------------------------------------
     job step          cpu (% of tot)      sys (% of tot)     wall (% of tot)
 ------------------------------------------------------------------------------
 ------------------------------------------------------------------------------
   Grand Totals     0.5200E+00          0.2000E-05          0.6299E+00
 ------------------------------------------------------------------------------
drvman_main.C: 77: out of DrvMan  Time for this dynamics step: 2.3 s (CPU) 2.5 s (wall)

=============== TIME STEPS COMPLETED ==================

Step-to-Step energy fluctuations, |E(n) - E(n-1)|
Mean: 2.238e-07   Max: 6.013e-05   RMS: 2.501e-05
Overall energy fluctuations, |E(n) - E(0)|
Mean: 9.303e-05   Max: 1.801e-04   RMS: 3.755e-05   RMS(dE)/RMS(dV): 1.615e-02
Kinetic energy fluctuations, |T(n) - V(0)|
Mean: -8.565e-03   Max: 1.408e-02   RMS: 2.300e-03
Potential energy fluctuations, |V(n) - V(0)|
Mean: 8.658e-03   Max: 1.424e-02   RMS: 2.325e-03


 JobOver = TRUE
Archival summary:
1\1\qciep03\JobtypUnspecified\HF\STO-3G\46\jcartus\MonJun1812:18:422018MonJun1812:18:422018\0\\#,JobtypUnspecified,HF,STO-3G,\\0,1\C\H,1,1.10777\C,1,1.33862,2,117.16\H,3,1.0983,1,130.365,2,-168.74,0\H,3,1.12264,1,114.704,2,-1.14488,0\C,1,1.45187,2,113.533,3,178.543,0\H,6,1.09911,1,110.965,2,176.687,0\C,6,1.33896,1,128.317,2,6.78442,0\H,8,1.06434,6,118.155,1,173.663,0\H,8,1.13655,6,120.177,1,-9.57471,0\\HF=-153.00324\\@

 Total job time:  790.03s(wall), 762.08s(cpu) 
 Mon Jun 18 12:18:42 2018

        *************************************************************
        *                                                           *
        *  Thank you very much for using Q-Chem.  Have a nice day.  *
        *                                                           *
        *************************************************************


*** MISSION COMPLETED -- STARFLEET OUT ***

0 sent ACK to 0 
now end server 0 ... 
