Process 0 of 1 is on qciep03 - thread support 0
initial socket setup ...start
initial socket setup ...done 
now start server 0 ... 
qciep03.tugraz.at 127.0.1
Q-Chem Developer Version! Running on 127.0.1.*
                  Welcome to Q-Chem
     A Quantum Leap Into The Future Of Chemistry


 Q-Chem 5.0, Q-Chem, Inc., Pleasanton, CA (2017)

 Yihan Shao,  Zhengting Gan,  E. Epifanovsky,  A. T. B. Gilbert,  M. Wormit,  
 J. Kussmann,  A. W. Lange,  A. Behn,  Jia Deng,  Xintian Feng,  D. Ghosh,  
 M. Goldey,  P. R. Horn,  L. D. Jacobson,  I. Kaliman,  T. Kus,  A. Landau,  
 Jie Liu,  E. I. Proynov,  R. M. Richard,  R. P. Steele,  E. J. Sundstrom,  
 H. L. Woodcock III,  P. M. Zimmerman,  D. Zuev,  B. Albrecht,  E. Alguire,  
 S. A. Baeppler,  D. Barton,  Z. Benda,  Y. A. Bernard,  E. J. Berquist,  
 K. B. Bravaya,  H. Burton,  D. Casanova,  Chun-Min Chang,  Yunqing Chen,  
 A. Chien,  K. D. Closser,  M. P. Coons,  S. Dasgupta,  A. L. Dempwolff,  
 M. Diedenhofen,  Hainam Do,  R. G. Edgar,  Po-Tung Fang,  S. Fatehi,  
 Qingguo Feng,  J. Fosso-Tande,  Qinghui Ge,  A. Ghysels,  G. Gidofalvi,  
 J. Gomes,  J. Gonthier,  A. Gunina,  M. W. D. Hanson-Heine,  
 P. H. P. Harbach,  A. W. Hauser,  J. E. Herr,  E. G. Hohenstein,  
 Z. C. Holden,  Kerwin Hui,  T.-C. Jagau,  Hyunjun Ji,  B. Kaduk,  
 K. Khistyaev,  Jaehoon Kim,  P. Klunzinger,  K. Koh,  D. Kosenkov,  
 L. Koulias,  T. Kowalczyk,  C. M. Krauter,  A. Kunitsa,  Ka Un Lao,  
 A. Laurent,  K. V. Lawler,  Joonho Lee,  D. Lefrancois,  S. Lehtola,  
 D. S. Levine,  Yi-Pei Li,  You-Sheng Lin,  Fenglai Liu,  E. Livshits,  
 A. Luenser,  P. Manohar,  E. Mansoor,  S. F. Manzer,  Shan-Ping Mao,  
 Yuezhi Mao,  N. Mardirossian,  A. V. Marenich,  T. Markovich,  
 L. A. Martinez-Martinez,  S. A. Maurer,  N. J. Mayhall,  S. C. McKenzie,  
 J.-M. Mewes,  A. F. Morrison,  J. W. Mullinax,  K. Nanda,  
 T. S. Nguyen-Beck,  R. Olivares-Amaya,  J. A. Parkhill,  T. M. Perrine,  
 F. Plasser,  S. Prager,  A. Prociuk,  E. Ramos,  D. R. Rehn,  F. Rob,  
 M. Schneider,  N. Sergueev,  S. M. Sharada,  S. Sharma,  D. W. Small,  
 T. Stauch,  T. Stein,  Yu-Chuan Su,  A. J. W. Thom,  A. Tkatchenko,  
 T. Tsuchimochi,  L. Vogt,  O. Vydrov,  M. A. Watson,  J. Wenzel,  
 M. de Wergifosse,  T. A. Wesolowski,  A. White,  J. Witte,  A. Yamada,  
 Jun Yang,  K. Yao,  S. Yeganeh,  S. R. Yost,  Zhi-Qiang You,  A. Zech,  
 Igor Ying Zhang,  Xing Zhang,  Yan Zhao,  Ying Zhu,  B. R. Brooks,  
 G. K. L. Chan,  C. J. Cramer,  M. S. Gordon,  W. J. Hehre,  A. Klamt,  
 M. W. Schmidt,  C. D. Sherrill,  D. G. Truhlar,  A. Aspuru-Guzik,  R. Baer,  
 A. T. Bell,  N. A. Besley,  Jeng-Da Chai,  R. A. DiStasio Jr.,  A. Dreuw,  
 B. D. Dunietz,  T. R. Furlani,  Chao-Ping Hsu,  Yousung Jung,  Jing Kong,  
 D. S. Lambrecht,  WanZhen Liang,  C. Ochsenfeld,  V. A. Rassolov,  
 L. V. Slipchenko,  J. E. Subotnik,  T. Van Voorhis,  J. M. Herbert,  
 A. I. Krylov,  P. M. W. Gill,  M. Head-Gordon

 Contributors to earlier versions of Q-Chem not listed above: 
 R. D. Adamson,  B. Austin,  J. Baker,  G. J. O. Beran,  K. Brandhorst,  
 S. T. Brown,  E. F. C. Byrd,  A. K. Chakraborty,  C.-L. Cheng,  
 Siu Hung Chien,  D. M. Chipman,  D. L. Crittenden,  H. Dachsel,  
 R. J. Doerksen,  A. D. Dutoi,  L. Fusti-Molnar,  W. A. Goddard III,  
 A. Golubeva-Zadorozhnaya,  S. R. Gwaltney,  G. Hawkins,  A. Heyden,  
 S. Hirata,  G. Kedziora,  F. J. Keil,  C. Kelley,  Jihan Kim,  R. A. King,  
 R. Z. Khaliullin,  P. P. Korambath,  W. Kurlancheek,  A. M. Lee,  M. S. Lee,  
 S. V. Levchenko,  Ching Yeh Lin,  D. Liotard,  R. C. Lochan,  I. Lotan,  
 P. E. Maslen,  N. Nair,  D. P. O'Neill,  D. Neuhauser,  E. Neuscamman,  
 C. M. Oana,  R. Olson,  B. Peters,  R. Peverati,  P. A. Pieniazek,  
 Y. M. Rhee,  J. Ritchie,  M. A. Rohrdanz,  E. Rosta,  N. J. Russ,  
 H. F. Schaefer III,  N. E. Schultz,  N. Shenvi,  A. C. Simmonett,  A. Sodt,  
 D. Stuck,  K. S. Thanthiriwatte,  V. Vanovschi,  Tao Wang,  A. Warshel,  
 C. F. Williams,  Q. Wu,  X. Xu,  W. Zhang

 Please cite Q-Chem as follows:
 Y. Shao et al., Mol. Phys. 113, 184-215 (2015)
 DOI: 10.1080/00268976.2014.952696

 Q-Chem 5.0.2 for Intel X86 EM64T Linux

 Parts of Q-Chem use Armadillo 5.200.1 (Boston Tea Smuggler).
 http://arma.sourceforge.net/

 Q-Chem begins on Mon Jun 18 12:09:07 2018  


Host: 0

     Scratch files written to /home/jcartus/scratch/Butadien_10.mol.dir//
 Using version located at /usr/local/qchem/bin/qchem

 Parallel job on  1  processors
Symmetry disabled for AIMD jobs.

Total Memory Limit in MB = 2000
Mega-Array Size in MB = 192

Checking the input file for inconsistencies... 	...done.
Finally everything over in PARseQInput

--------------------------------------------------------------
User input:
--------------------------------------------------------------
$rem
AIMD_STEPS                    400
FOCK_EXTRAP_POINTS            12
MAX_SCF_CYCLES                100
BASIS                         sto-3g
AIMD_INIT_VELOC               thermal
FOCK_EXTRAP_ORDER             6
AIMD_TEMP                     400
AIMD_METHOD                   bomd
TIME_STEP                     20
METHOD                        hf
JOBTYPE                       aimd
$end

$molecule
0 1
C    5.35102    -0.89393    -0.59185
C    4.34003    -0.02581    -0.71219
H    6.27291    -0.60008    -0.10005
H    5.28753    -1.91089    -0.96529
C    3.05215    -1.71460    -1.64525
C    2.04771    0.47471    -1.39140
H    1.12608    0.18028    -1.88332
H    2.07595    1.45775    -0.93260
H    4.45451    0.97924    -0.31161
H    2.81875    -2.92738    -2.21296
$end


--------------------------------------------------------------
 ----------------------------------------------------------------
             Standard Nuclear Orientation (Angstroms)
    I     Atom           X                Y                Z
 ----------------------------------------------------------------
    1      C       5.3510200000    -0.8939300000    -0.5918500000
    2      C       4.3400300000    -0.0258100000    -0.7121900000
    3      H       6.2729100000    -0.6000800000    -0.1000500000
    4      H       5.2875300000    -1.9108900000    -0.9652900000
    5      C       3.0521500000    -1.7146000000    -1.6452500000
    6      C       2.0477100000     0.4747100000    -1.3914000000
    7      H       1.1260800000     0.1802800000    -1.8833200000
    8      H       2.0759500000     1.4577500000    -0.9326000000
    9      H       4.4545100000     0.9792400000    -0.3116100000
   10      H       2.8187500000    -2.9273800000    -2.2129600000
 ----------------------------------------------------------------
 Nuclear Repulsion Energy =    88.5197360496 hartrees
 There are       15 alpha and       15 beta electrons
 Requested basis set is STO-3G
 There are 14 shells and 26 basis functions

 Total QAlloc Memory Limit   2000 MB
 Mega-Array Size       188 MB
 MEM_STATIC part       192 MB

finished with qalloc call

                       Distance Matrix (Angstroms)
             C (  1)   C (  2)   H (  3)   H (  4)   C (  5)   C (  6)
   C (  2)  1.337989
   H (  3)  1.085401  2.107256
   H (  4)  1.085217  2.124934  1.854140
   C (  5)  2.658562  2.319752  3.742071  2.344739
   C (  6)  3.663920  2.442658  4.546985  4.045873  2.422069
   H (  7)  4.546641  3.426878  5.502624  4.746940  2.712378  1.085392
   H (  8)  4.046306  2.715804  4.747871  4.654358  3.394796  1.085202
   H (  9)  2.095479  1.087978  2.417765  3.077998  3.316924  2.685737
   H ( 10)  3.629781  3.603569  4.670325  2.947000  1.359267  3.583808
             H (  7)   H (  8)   H (  9)
   H (  8)  1.854198
   H (  9)  3.766571  2.504426
   H ( 10)  3.554060  4.628222  4.642469

 Job number = 2, Threshold = 1.00E-11
Integral type ranges set in mkLRange.C for JobNum: 2  <1-6|1-6>
Symmetry turned off temporarily
 Using the largest function pair in Schwarz integrals
Total number of integrals generated =            3250
Symmetry turned back on
 A cutoff of  1.0D-11 yielded    100 shell pairs
 There are       370 function pairs
 Job number = 11, Threshold = 1.00E-11
Integral type ranges set in mkLRange.C for JobNum: 11  <1-6|7-7>
Total number of integrals generated =            3700
 Smallest overlap matrix eigenvalue = 1.95E-01
 Multipole matrices computed through 2nd order

 Scale SEOQF with 1.000000e-02/1.000000e-01/1.000000e-01

 Standard Electronic Orientation quadrupole field applied
 Nucleus-field energy     =    -0.0000000002 hartrees
 ENuRep (before)= 88.5197360496
 ENucField = -0.0000000002
 ENuRep (after) = 88.5197360494
 Guess from superposition of atomic densities
 Warning:  Energy on first SCF cycle will be non-variational
 SAD guess density has 30.000000 electrons

 ==================================================
    GEN_SCFMAN: A general SCF calculation manager  
                                                   
    Authors:                                       
        -- Eric Jon Sundstrom 2008-2014            
        -- Paul Horn 2010-2015                     
        -- Yuezhi Mao 2012-                        
        -- Dmitri Zuev 2014                        
        -- Alec White 2015-                        
        -- David Stuck 2015                        
        -- Shaama M.S. 2015                        
        -- Shane Yost 2015-                         
        -- Joonho Lee 2016-                        
        -- David Small 2016-                       
        -- Daniel Levine 2016-                     
        -- Susi Lehtola 2017-                      
        -- Hugh Burton 2017-                       
 ==================================================
 Hartree-Fock
Finding J and K together
 Job number = 22, Threshold = 1.00E-11
Integral type ranges set in mkLRange.C for JobNum: 22  <1-6|1-6>
 MakeJK  time:  CPU       0.12 s  wall       0.12 s
 A restricted SCF calculation will be
 performed using DIIS
 SCF converges when DIIS error is below 1.0e-08
 ---------------------------------------
  Cycle       Energy         DIIS error
 ---------------------------------------
Finding J and K together
 Job number = 22, Threshold = 1.00E-11
Integral type ranges set in mkLRange.C for JobNum: 22  <1-6|1-6>
 MakeJK  time:  CPU       0.13 s  wall       0.13 s
    1    -151.2388664568      1.55e-01  
Finding J and K together
 Job number = 22, Threshold = 1.00E-11
Integral type ranges set in mkLRange.C for JobNum: 22  <1-6|1-6>
 MakeJK  time:  CPU       0.15 s  wall       0.15 s
    2    -152.2082079766      2.12e-02  
Finding J and K together
 Job number = 22, Threshold = 1.00E-11
Integral type ranges set in mkLRange.C for JobNum: 22  <1-6|1-6>
 MakeJK  time:  CPU       0.12 s  wall       0.12 s
    3    -152.2463020791      2.35e-02  
Finding J and K together
 Job number = 22, Threshold = 1.00E-11
Integral type ranges set in mkLRange.C for JobNum: 22  <1-6|1-6>
 MakeJK  time:  CPU       0.11 s  wall       0.11 s
    4    -152.3162587002      3.33e-03  
Finding J and K together
 Job number = 22, Threshold = 1.00E-11
Integral type ranges set in mkLRange.C for JobNum: 22  <1-6|1-6>
 MakeJK  time:  CPU       0.17 s  wall       0.17 s
    5    -152.3209954494      2.23e-03  
Finding J and K together
 Job number = 22, Threshold = 1.00E-11
Integral type ranges set in mkLRange.C for JobNum: 22  <1-6|1-6>
 MakeJK  time:  CPU       0.16 s  wall       0.17 s
    6    -152.3231485299      1.14e-03  
Finding J and K together
 Job number = 22, Threshold = 1.00E-11
Integral type ranges set in mkLRange.C for JobNum: 22  <1-6|1-6>
 MakeJK  time:  CPU       0.16 s  wall       0.16 s
    7    -152.3241774792      5.69e-04  
Finding J and K together
 Job number = 22, Threshold = 1.00E-11
Integral type ranges set in mkLRange.C for JobNum: 22  <1-6|1-6>
 MakeJK  time:  CPU       0.18 s  wall       0.19 s
    8    -152.3246309984      3.66e-04  
Finding J and K together
 Job number = 22, Threshold = 1.00E-11
Integral type ranges set in mkLRange.C for JobNum: 22  <1-6|1-6>
 MakeJK  time:  CPU       0.17 s  wall       0.18 s
    9    -152.3248330029      2.62e-04  
Finding J and K together
 Job number = 22, Threshold = 1.00E-11
Integral type ranges set in mkLRange.C for JobNum: 22  <1-6|1-6>
 MakeJK  time:  CPU       0.17 s  wall       0.17 s
   10    -152.3249500390      2.12e-04  
Finding J and K together
 Job number = 22, Threshold = 1.00E-11
Integral type ranges set in mkLRange.C for JobNum: 22  <1-6|1-6>
 MakeJK  time:  CPU       0.19 s  wall       0.20 s
   11    -152.3250887613      1.23e-04  
Finding J and K together
 Job number = 22, Threshold = 1.00E-11
Integral type ranges set in mkLRange.C for JobNum: 22  <1-6|1-6>
 MakeJK  time:  CPU       0.18 s  wall       0.19 s
   12    -152.3251321919      8.56e-05  
Finding J and K together
 Job number = 22, Threshold = 1.00E-11
Integral type ranges set in mkLRange.C for JobNum: 22  <1-6|1-6>
 MakeJK  time:  CPU       0.16 s  wall       0.16 s
   13    -152.3251516925      6.11e-05  
Finding J and K together
 Job number = 22, Threshold = 1.00E-11
Integral type ranges set in mkLRange.C for JobNum: 22  <1-6|1-6>
 MakeJK  time:  CPU       0.11 s  wall       0.11 s
   14    -152.3251614742      4.71e-05  
Finding J and K together
 Job number = 22, Threshold = 1.00E-11
Integral type ranges set in mkLRange.C for JobNum: 22  <1-6|1-6>
 MakeJK  time:  CPU       0.12 s  wall       0.13 s
   15    -152.3251711582      2.60e-05  
Finding J and K together
 Job number = 22, Threshold = 1.00E-11
Integral type ranges set in mkLRange.C for JobNum: 22  <1-6|1-6>
 MakeJK  time:  CPU       0.13 s  wall       0.13 s
   16    -152.3251735306      8.73e-06  
Finding J and K together
 Job number = 22, Threshold = 1.00E-11
Integral type ranges set in mkLRange.C for JobNum: 22  <1-6|1-6>
 MakeJK  time:  CPU       0.14 s  wall       0.13 s
   17    -152.3251736453      3.55e-06  
Finding J and K together
 Job number = 22, Threshold = 1.00E-11
Integral type ranges set in mkLRange.C for JobNum: 22  <1-6|1-6>
 MakeJK  time:  CPU       0.11 s  wall       0.11 s
   18    -152.3251736533      6.37e-07  
Finding J and K together
 Job number = 22, Threshold = 1.00E-11
Integral type ranges set in mkLRange.C for JobNum: 22  <1-6|1-6>
 MakeJK  time:  CPU       0.17 s  wall       0.18 s
   19    -152.3251736535      3.56e-07  
Finding J and K together
 Job number = 22, Threshold = 1.00E-11
Integral type ranges set in mkLRange.C for JobNum: 22  <1-6|1-6>
 MakeJK  time:  CPU       0.18 s  wall       0.18 s
   20    -152.3251736535      6.10e-08  
Finding J and K together
 Job number = 22, Threshold = 1.00E-11
Integral type ranges set in mkLRange.C for JobNum: 22  <1-6|1-6>
 MakeJK  time:  CPU       0.18 s  wall       0.19 s
   21    -152.3251736535      2.48e-08  
   22    -152.3251736535      7.34e-09  Convergence criterion met
 ---------------------------------------
 SCF time:   CPU 3.33s  wall 3.00s 
 Total energy in the final basis set =     -152.3251736535
Wall  1 = 3
Clock 1 = 3.3319020271
 ==================================================
                  Done GEN_SCFMAN                  
 ==================================================

Symmetry turned off temporarily

 --------------------------------------------------------------

                    Orbital Energies (a.u.)
 --------------------------------------------------------------

 Alpha MOs
 -- Occupied --
-11.046 -10.964 -10.962 -10.957  -0.928  -0.859  -0.680  -0.676
 -0.563  -0.528  -0.467  -0.381  -0.280  -0.224  -0.126
 -- Virtual --
  0.175   0.205   0.271   0.369   0.533   0.645   0.684   0.732
  0.750   0.933   1.037
 --------------------------------------------------------------

          Ground-State Mulliken Net Atomic Charges

     Atom                 Charge (a.u.)
  ----------------------------------------
      1 C                    -0.162887
      2 C                    -0.048299
      3 H                     0.026632
      4 H                     0.039491
      5 C                     0.068609
      6 C                     0.025776
      7 H                     0.053016
      8 H                     0.050241
      9 H                     0.038132
     10 H                    -0.090711
  ----------------------------------------
  Sum of atomic charges =    -0.000000

 -----------------------------------------------------------------
                    Cartesian Multipole Moments
 -----------------------------------------------------------------
    Charge (ESU x 10^10)
                -0.0000
    Dipole Moment (Debye)
         X      -2.1485      Y       1.4817      Z      -0.4985
       Tot       2.6571
    Quadrupole Moments (Debye-Ang)
        XX     -37.1821     XY       3.6085     YY     -23.1433
        XZ       0.9295     YZ      -1.7241     ZZ     -21.8754
    Octopole Moments (Debye-Ang^2)
       XXX    -335.3494    XXY      24.7676    XYY     -85.1760
       YYY      41.5708    XXZ      36.3106    XYZ      -2.5501
       YYZ      26.3678    XZZ     -86.7531    YZZ      15.9852
       ZZZ      70.4632
    Hexadecapole Moments (Debye-Ang^3)
      XXXX   -2620.1769   XXXY     224.3378   XXYY    -400.5586
      XYYY     173.6533   YYYY    -216.2654   XXXZ     312.8402
      XXYZ     -20.7624   XYYZ      81.0348   YYYZ     -65.4806
      XXZZ    -422.3688   XYZZ      61.7328   YYZZ     -76.4173
      XZZZ     231.3990   YZZZ     -61.0853   ZZZZ    -206.2982
 -----------------------------------------------------------------
drvman_main.C: 73: calling DrvMan  Calculating analytic gradient of the SCF energy
drvman.C : 218: Calculating analytic gradient of the SCF energy
drvman.C: 244: calling SCF_Grad for normal SCF gradient
 Job number = 111, Threshold = 1.00E-11
Integral type ranges set in mkLRange.C for JobNum: 11  <1-6|7-7>
Finding J and K together
 ML is being used
 Job number = 122, Threshold = 1.00E-11
Integral type ranges set in mkLRange.C for JobNum: 22  <1-6|1-6>
Total number of integrals generated =           69643
 MakeJK  time:  CPU       0.44 s  wall       0.46 s
 Gradient of SCF Energy
            1           2           3           4           5           6
    1   0.0164625  -0.0366331  -0.0057524  -0.0143800   0.0686778  -0.0462307
    2  -0.0353625   0.0963552   0.0059891  -0.0075284   0.0362742   0.0243674
    3  -0.0079853   0.0427483  -0.0033549  -0.0061473  -0.0138967   0.0104672
            7           8           9          10
    1   0.0292013   0.0289512   0.0112689  -0.0515654
    2  -0.0192090  -0.0215121  -0.0063555  -0.0730185
    3   0.0056322  -0.0125263   0.0025910  -0.0175281
 Max gradient component =       9.636E-02
 RMS gradient           =       3.400E-02
drvman.C: 248: out of SCF_Grad for normal SCF gradient
 Gradient time:  CPU 0.46 s  wall 0.49 s
 ------------------------------------------------------------------------------
                     drvman        : Timing summary (seconds)
 ------------------------------------------------------------------------------
     job step          cpu (% of tot)      sys (% of tot)     wall (% of tot)
 ------------------------------------------------------------------------------
 ------------------------------------------------------------------------------
   Grand Totals     0.4640E+00          0.2000E-05          0.4889E+00
 ------------------------------------------------------------------------------
drvman_main.C: 77: out of DrvMan =======================================================
            AB INITIO MOLECULAR DYNAMICS
=======================================================
Created directory /home/jcartus/scratch/Butadien_10.mol.dir/AIMD
AIMD will take 400 BOMD steps Velocity Verlet integration
Time step = 20.00000 a.u. ( = 0.48378 fs)
Total simulation time requested = 193.511 fs
Integral threshold = 10**(-11)
SCF convergence threshold = 10**(-8)
Generating viewable xyz trajectory,
 file (in Angstroms) at AIMD/View.xyz
Choosing nuclear velocities from Maxwell-Boltzmann
Velocities sampled from Maxwell-Boltzmann at T = 400.0 K
sqrt(kT/m) and (vx,vy,vz) for each atom:
  1   2.4064e-04   3.44e-06   2.56e-04   7.13e-05 
  2   2.4064e-04  -1.98e-05   1.25e-04   9.64e-05 
  3   8.3036e-04  -2.76e-03   1.49e-04   1.14e-03 
  4   8.3036e-04   4.89e-04  -1.11e-03  -6.70e-04 
  5   2.4064e-04   1.45e-04   1.17e-05  -7.79e-05 
  6   2.4064e-04  -1.52e-04   4.20e-05  -1.04e-04 
  7   8.3036e-04   2.26e-04  -1.25e-03   4.96e-05 
  8   8.3036e-04   6.95e-04   3.34e-03   1.38e-04 
  9   8.3036e-04  -1.79e-04   2.62e-04  -1.43e-03 
 10   8.3036e-04  -1.67e-03   9.40e-04  -8.52e-05 
T(nuclear) = 0.02926402 a.u.
v(c.o.m.) = ( -6.4957e-05,   1.4000e-04,  -1.9206e-05)
T(c.o.m.) = 1.19150e-03 a.u.
kT/2 = 0.000633 a.u.
Tx   = 0.010784 a.u.
Ty   = 0.014631 a.u.
Tz   = 0.003850 a.u.
Mean velocities (a.u.):  -3.2206e-04   2.7680e-04  -8.7460e-05
Removing c.o.m. velocity
T(nuclear) = 0.02726804 a.u.
v(c.o.m.) = (  4.5075e-21,   1.9157e-20,   1.1621e-20)
T(c.o.m.) = 2.57317e-35 a.u.
kT   = 0.001267 a.u. = 0.79 kcal/mol
Tx   = 0.009429 a.u. = 5.92 kcal/mol
Ty   = 0.014093 a.u. = 8.84 kcal/mol
Tz   = 0.003746 a.u. = 2.35 kcal/mol
Initial velocities in m/s
  1      7.1531e+01      4.2121e+02      1.7498e+02 
  2      2.0692e+01      1.3622e+02      2.2991e+02 
  3     -5.2775e+03     -1.3167e+03      2.7146e+03 
  4      1.8327e+03     -4.0633e+03     -1.2399e+03 
  5      3.8049e+02     -1.1244e+02     -1.5158e+02 
  6     -2.6942e+02     -4.6066e+01     -2.0877e+02 
  7      1.2572e+03     -4.3839e+03      3.3388e+02 
  8      2.2832e+03      5.6696e+03      5.2643e+02 
  9      3.7020e+02     -1.0686e+03     -2.9041e+03 
 10     -2.8863e+03      4.1318e+02      3.8860e+01 
----------------------------------------------------------------------------
       Nuclear coordinates (Angst) and velocities (a.u.)
----------------------------------------------------------------------------
             x        y        z            v_x         v_y        v_z
----------------------------------------------------------------------------
1      C    5.3510  -0.8939  -0.5918     3.2697e-05   1.9254e-04   7.9982e-05
2      C    4.3400  -0.0258  -0.7122     9.4585e-06   6.2265e-05   1.0509e-04
3      H    6.2729  -0.6001  -0.1001    -2.4124e-03  -6.0188e-04   1.2409e-03
4      H    5.2875  -1.9109  -0.9653     8.3771e-04  -1.8573e-03  -5.6677e-04
5      C    3.0522  -1.7146  -1.6453     1.7392e-04  -5.1398e-05  -6.9289e-05
6      C    2.0477   0.4747  -1.3914    -1.2315e-04  -2.1057e-05  -9.5430e-05
7      H    1.1261   0.1803  -1.8833     5.7466e-04  -2.0039e-03   1.5262e-04
8      H    2.0760   1.4578  -0.9326     1.0437e-03   2.5916e-03   2.4063e-04
9      H    4.4545   0.9792  -0.3116     1.6922e-04  -4.8848e-04  -1.3275e-03
10     H    2.8188  -2.9274  -2.2130    -1.3193e-03   1.8887e-04   1.7763e-05
----------------------------------------------------------------------------
Write nuclear velocities every 1 time steps

TIME STEP #1 (t = 0.000 a.u. = 0.00000 fs)
--------------------------------------
 Instantaneous Temperature = 574.0 K
 ----------------------------------------------------------------
             Standard Nuclear Orientation (Angstroms)
    I     Atom           X                Y                Z
 ----------------------------------------------------------------
    1      C       5.3512863990    -0.8917212032    -0.5909648704
    2      C       4.3403073457    -0.0256172044    -0.7112845848
    3      H       6.2477099500    -0.6067950455    -0.0867239643
    4      H       5.2972243678    -1.9301134025    -0.9709342754
    5      C       3.0536584464    -1.7153194798    -1.6459160833
    6      C       2.0466302768     0.4743692454    -1.3924606296
    7      H       1.1304797562     0.1601781170    -1.8820292447
    8      H       2.0853277045     1.4864174871    -0.9293316280
    9      H       4.4556517396     0.9744362850    -0.3258086778
   10      H       2.8077575297    -2.9211746828    -2.2117622425
 ----------------------------------------------------------------
 Nuclear Repulsion Energy =    88.4742105179 hartrees
 There are       15 alpha and       15 beta electrons

                       Distance Matrix (Angstroms)
             C (  1)   C (  2)   H (  3)   H (  4)   C (  5)   C (  6)
   C (  2)  1.336672
   H (  3)  1.067247  2.089504
   H (  4)  1.107049  2.147141  1.853759
   C (  5)  2.659009  2.320365  3.723153  2.352727
   C (  6)  3.664608  2.444369  4.530225  4.065167  2.423444
   H (  7)  4.537461  3.421718  5.476989  4.749860  2.696638  1.085231
   H (  8)  4.054198  2.723734  4.734654  4.689424  3.420859  1.113655
   H (  9)  2.086867  1.077962  2.401859  3.092061  3.308029  2.681641
   H ( 10)  3.635272  3.603387  4.658907  2.952846  1.354524  3.574953
             H (  7)   H (  8)   H (  9)
   H (  8)  1.891634
   H (  9)  3.760533  2.498960
   H ( 10)  3.523737  4.646870  4.631216

 Applying Cartesian multipole field
    Component          Value
    ---------          -----
     (2,0,0)        1.00000E-12
     (0,2,0)        2.00000E-11
     (0,0,2)       -3.00000E-11
 Nucleus-field energy     =    -0.0000000002 hartrees
 ENuRep (before)= 88.4742105179
 ENucField = -0.0000000002
 ENuRep (after) = 88.4742105177
 Job number = 2, Threshold = 1.00E-11
Integral type ranges set in mkLRange.C for JobNum: 2  <1-6|1-6>
Symmetry turned off temporarily
Symmetry turned back on
 Job number = 11, Threshold = 1.00E-11
Integral type ranges set in mkLRange.C for JobNum: 11  <1-6|7-7>
 Smallest overlap matrix eigenvalue = 1.94E-01
 Multipole matrices computed through 2nd order
 Guess from superposition of atomic densities
 Warning:  Energy on first SCF cycle will be non-variational
 SAD guess density has 30.000000 electrons
 SCF convergence criterion is 10**(-8)
 A restricted Hartree-Fock SCF calculation will be
 performed using Pulay DIIS extrapolation
 SCF converges when DIIS error is below 1.0E-08
Finding J and K together
 Job number = 22, Threshold = 1.00E-11
Integral type ranges set in mkLRange.C for JobNum: 22  <1-6|1-6>
 MakeJK  time:  CPU       0.14 s  wall       0.15 s
Fock build time:  0.14 s (CPU) 0.15 s (wall)
DIIS Errors:  Max 1.10E+00 RMS 1.55E-01

Current DIIS subspace size = 1
REM_GRID_RESTART_DIIS = 0

 ---------------------------------------
  Cycle       Energy         DIIS Error
 ---------------------------------------
    1    -151.2268657740      1.55E-01  00000
Finding J and K together
 Job number = 22, Threshold = 1.00E-11
Integral type ranges set in mkLRange.C for JobNum: 22  <1-6|1-6>
 MakeJK  time:  CPU       0.17 s  wall       0.20 s
Fock build time:  0.17 s (CPU) 0.20 s (wall)
DIIS Errors:  Max 1.21E-01 RMS 2.13E-02

Current DIIS subspace size = 2
REM_GRID_RESTART_DIIS = 0

    2    -152.2049378703      2.13E-02  00000
Finding J and K together
 Job number = 22, Threshold = 1.00E-11
Integral type ranges set in mkLRange.C for JobNum: 22  <1-6|1-6>
 MakeJK  time:  CPU       0.17 s  wall       0.19 s
Fock build time:  0.17 s (CPU) 0.19 s (wall)
DIIS Errors:  Max 1.51E-01 RMS 2.35E-02

Current DIIS subspace size = 3
REM_GRID_RESTART_DIIS = 0

    3    -152.2436607227      2.35E-02  00000
Finding J and K together
 Job number = 22, Threshold = 1.00E-11
Integral type ranges set in mkLRange.C for JobNum: 22  <1-6|1-6>
 MakeJK  time:  CPU       0.17 s  wall       0.18 s
Fock build time:  0.17 s (CPU) 0.18 s (wall)
DIIS Errors:  Max 1.53E-02 RMS 3.36E-03

Current DIIS subspace size = 4
REM_GRID_RESTART_DIIS = 0

    4    -152.3137235617      3.36E-03  00000
Finding J and K together
 Job number = 22, Threshold = 1.00E-11
Integral type ranges set in mkLRange.C for JobNum: 22  <1-6|1-6>
 MakeJK  time:  CPU       0.17 s  wall       0.18 s
Fock build time:  0.17 s (CPU) 0.18 s (wall)
DIIS Errors:  Max 1.34E-02 RMS 2.28E-03

Current DIIS subspace size = 5
REM_GRID_RESTART_DIIS = 0

    5    -152.3185036186      2.28E-03  00000
Finding J and K together
 Job number = 22, Threshold = 1.00E-11
Integral type ranges set in mkLRange.C for JobNum: 22  <1-6|1-6>
 MakeJK  time:  CPU       0.17 s  wall       0.18 s
Fock build time:  0.17 s (CPU) 0.18 s (wall)
DIIS Errors:  Max 6.13E-03 RMS 1.16E-03

Current DIIS subspace size = 6
REM_GRID_RESTART_DIIS = 0

    6    -152.3207062090      1.16E-03  00000
Finding J and K together
 Job number = 22, Threshold = 1.00E-11
Integral type ranges set in mkLRange.C for JobNum: 22  <1-6|1-6>
 MakeJK  time:  CPU       0.17 s  wall       0.17 s
Fock build time:  0.17 s (CPU) 0.17 s (wall)
DIIS Errors:  Max 3.34E-03 RMS 5.68E-04

Current DIIS subspace size = 7
REM_GRID_RESTART_DIIS = 0

    7    -152.3217733523      5.68E-04  00000
Finding J and K together
 Job number = 22, Threshold = 1.00E-11
Integral type ranges set in mkLRange.C for JobNum: 22  <1-6|1-6>
 MakeJK  time:  CPU       0.13 s  wall       0.14 s
Fock build time:  0.13 s (CPU) 0.14 s (wall)
DIIS Errors:  Max 2.50E-03 RMS 3.64E-04

Current DIIS subspace size = 8
REM_GRID_RESTART_DIIS = 0

    8    -152.3222389910      3.64E-04  00000
Finding J and K together
 Job number = 22, Threshold = 1.00E-11
Integral type ranges set in mkLRange.C for JobNum: 22  <1-6|1-6>
 MakeJK  time:  CPU       0.13 s  wall       0.14 s
Fock build time:  0.13 s (CPU) 0.14 s (wall)
DIIS Errors:  Max 1.95E-03 RMS 2.65E-04

Current DIIS subspace size = 9
REM_GRID_RESTART_DIIS = 0

    9    -152.3224334430      2.65E-04  00000
Finding J and K together
 Job number = 22, Threshold = 1.00E-11
Integral type ranges set in mkLRange.C for JobNum: 22  <1-6|1-6>
 MakeJK  time:  CPU       0.16 s  wall       0.15 s
Fock build time:  0.16 s (CPU) 0.15 s (wall)
DIIS Errors:  Max 1.76E-03 RMS 2.18E-04

Current DIIS subspace size = 10
REM_GRID_RESTART_DIIS = 0

   10    -152.3225512447      2.18E-04  00000
Finding J and K together
 Job number = 22, Threshold = 1.00E-11
Integral type ranges set in mkLRange.C for JobNum: 22  <1-6|1-6>
 MakeJK  time:  CPU       0.12 s  wall       0.12 s
Fock build time:  0.12 s (CPU) 0.12 s (wall)
DIIS Errors:  Max 1.28E-03 RMS 1.28E-04

Current DIIS subspace size = 11
REM_GRID_RESTART_DIIS = 0

   11    -152.3227018823      1.28E-04  00000
Finding J and K together
 Job number = 22, Threshold = 1.00E-11
Integral type ranges set in mkLRange.C for JobNum: 22  <1-6|1-6>
 MakeJK  time:  CPU       0.12 s  wall       0.12 s
Fock build time:  0.12 s (CPU) 0.12 s (wall)
DIIS Errors:  Max 8.60E-04 RMS 8.98E-05

Current DIIS subspace size = 12
REM_GRID_RESTART_DIIS = 0

   12    -152.3227501752      8.98E-05  00000
Finding J and K together
 Job number = 22, Threshold = 1.00E-11
Integral type ranges set in mkLRange.C for JobNum: 22  <1-6|1-6>
 MakeJK  time:  CPU       0.17 s  wall       0.17 s
Fock build time:  0.17 s (CPU) 0.17 s (wall)
DIIS Errors:  Max 5.90E-04 RMS 6.41E-05

Current DIIS subspace size = 13
REM_GRID_RESTART_DIIS = 0

   13    -152.3227716902      6.41E-05  00000
Finding J and K together
 Job number = 22, Threshold = 1.00E-11
Integral type ranges set in mkLRange.C for JobNum: 22  <1-6|1-6>
 MakeJK  time:  CPU       0.16 s  wall       0.16 s
Fock build time:  0.16 s (CPU) 0.16 s (wall)
DIIS Errors:  Max 4.33E-04 RMS 5.02E-05

Current DIIS subspace size = 14
REM_GRID_RESTART_DIIS = 0

   14    -152.3227823472      5.02E-05  00000
Finding J and K together
 Job number = 22, Threshold = 1.00E-11
Integral type ranges set in mkLRange.C for JobNum: 22  <1-6|1-6>
 MakeJK  time:  CPU       0.14 s  wall       0.15 s
Fock build time:  0.14 s (CPU) 0.15 s (wall)
DIIS Errors:  Max 1.99E-04 RMS 2.85E-05

Current DIIS subspace size = 15
REM_GRID_RESTART_DIIS = 0

   15    -152.3227938598      2.85E-05  00000
Finding J and K together
 Job number = 22, Threshold = 1.00E-11
Integral type ranges set in mkLRange.C for JobNum: 22  <1-6|1-6>
 MakeJK  time:  CPU       0.16 s  wall       0.16 s
Fock build time:  0.16 s (CPU) 0.16 s (wall)
DIIS Errors:  Max 5.32E-05 RMS 9.67E-06

Current DIIS subspace size = 15
REM_GRID_RESTART_DIIS = 0

   16    -152.3227967770      9.67E-06  00000
Finding J and K together
 Job number = 22, Threshold = 1.00E-11
Integral type ranges set in mkLRange.C for JobNum: 22  <1-6|1-6>
 MakeJK  time:  CPU       0.13 s  wall       0.13 s
Fock build time:  0.13 s (CPU) 0.13 s (wall)
DIIS Errors:  Max 2.23E-05 RMS 3.88E-06

Current DIIS subspace size = 15
REM_GRID_RESTART_DIIS = 0

   17    -152.3227969307      3.88E-06  00000
Finding J and K together
 Job number = 22, Threshold = 1.00E-11
Integral type ranges set in mkLRange.C for JobNum: 22  <1-6|1-6>
 MakeJK  time:  CPU       0.14 s  wall       0.14 s
Fock build time:  0.14 s (CPU) 0.14 s (wall)
DIIS Errors:  Max 4.09E-06 RMS 6.04E-07

Current DIIS subspace size = 15
REM_GRID_RESTART_DIIS = 0

   18    -152.3227969412      6.04E-07  00000
Finding J and K together
 Job number = 22, Threshold = 1.00E-11
Integral type ranges set in mkLRange.C for JobNum: 22  <1-6|1-6>
 MakeJK  time:  CPU       0.17 s  wall       0.17 s
Fock build time:  0.17 s (CPU) 0.17 s (wall)
DIIS Errors:  Max 2.04E-06 RMS 3.15E-07

Current DIIS subspace size = 15
REM_GRID_RESTART_DIIS = 0

   19    -152.3227969413      3.15E-07  00000
Finding J and K together
 Job number = 22, Threshold = 1.00E-11
Integral type ranges set in mkLRange.C for JobNum: 22  <1-6|1-6>
 MakeJK  time:  CPU       0.16 s  wall       0.16 s
Fock build time:  0.16 s (CPU) 0.16 s (wall)
DIIS Errors:  Max 5.98E-07 RMS 6.93E-08

Current DIIS subspace size = 15
REM_GRID_RESTART_DIIS = 0

   20    -152.3227969414      6.93E-08  00000
Finding J and K together
 Job number = 22, Threshold = 1.00E-11
Integral type ranges set in mkLRange.C for JobNum: 22  <1-6|1-6>
 MakeJK  time:  CPU       0.16 s  wall       0.15 s
Fock build time:  0.16 s (CPU) 0.15 s (wall)
DIIS Errors:  Max 2.21E-07 RMS 3.05E-08

Current DIIS subspace size = 15
REM_GRID_RESTART_DIIS = 0

   21    -152.3227969414      3.05E-08  00000
Finding J and K together
 Job number = 22, Threshold = 1.00E-11
Integral type ranges set in mkLRange.C for JobNum: 22  <1-6|1-6>
 MakeJK  time:  CPU       0.11 s  wall       0.11 s
Fock build time:  0.11 s (CPU) 0.11 s (wall)
DIIS Errors:  Max 6.65E-08 RMS 7.87E-09

Current DIIS subspace size = 15
REM_GRID_RESTART_DIIS = 0

   22    -152.3227969414      7.87E-09  00000 Convergence criterion met
 ---------------------------------------
 SCF time:  CPU 3.38 s  wall 3.49 s
 SCF   energy in the final basis set = -152.32279694
 Total energy in the final basis set = -152.32279694
drvman_main.C: 73: calling DrvMan  Calculating analytic gradient of the SCF energy
drvman.C : 218: Calculating analytic gradient of the SCF energy
drvman.C: 244: calling SCF_Grad for normal SCF gradient
 Job number = 111, Threshold = 1.00E-11
Integral type ranges set in mkLRange.C for JobNum: 11  <1-6|7-7>
Finding J and K together
 ML is being used
 Job number = 122, Threshold = 1.00E-11
Integral type ranges set in mkLRange.C for JobNum: 22  <1-6|1-6>
 MakeJK  time:  CPU       0.37 s  wall       0.37 s
 Gradient of SCF Energy
            1           2           3           4           5           6
    1   0.0301486  -0.0351191  -0.0208953  -0.0140467   0.0699129  -0.0503744
    2  -0.0122239   0.1027261   0.0011660  -0.0251126   0.0355183   0.0042576
    3   0.0034169   0.0488227  -0.0103699  -0.0125065  -0.0145989  -0.0014482
            7           8           9          10
    1   0.0307881   0.0313550   0.0105786  -0.0523476
    2  -0.0211616   0.0007100  -0.0142966  -0.0715833
    3   0.0054513  -0.0008057  -0.0016515  -0.0163102
 Max gradient component =       1.027E-01
 RMS gradient           =       3.490E-02
drvman.C: 248: out of SCF_Grad for normal SCF gradient
 Gradient time:  CPU 0.38 s  wall 0.38 s
 ------------------------------------------------------------------------------
                     drvman        : Timing summary (seconds)
 ------------------------------------------------------------------------------
     job step          cpu (% of tot)      sys (% of tot)     wall (% of tot)
 ------------------------------------------------------------------------------
 ------------------------------------------------------------------------------
   Grand Totals     0.3840E+00          0.1000E-05          0.3834E+00
 ------------------------------------------------------------------------------
drvman_main.C: 77: out of DrvMan  Time for this dynamics step: 3.8 s (CPU) 3.9 s (wall)

TIME STEP #2 (t = 20.000 a.u. = 0.48378 fs)
--------------------------------------
 Instantaneous Temperature = 524.9 K
 ----------------------------------------------------------------
             Standard Nuclear Orientation (Angstroms)
    I     Atom           X                Y                Z
 ----------------------------------------------------------------
    1      C       5.3512610641    -0.8893941214    -0.5901128050
    2      C       4.3409245228    -0.0264184409    -0.7108516040
    3      H       6.2249173791    -0.6136444383    -0.0722031483
    4      H       5.3085371487    -1.9464434234    -0.9751376043
    5      C       3.0544903783    -1.7163826533    -1.6464409000
    6      C       2.0460380033     0.4739872916    -1.3935072452
    7      H       1.1313322226     0.1425143963    -1.8813665633
    8      H       2.0910928021     1.5150031737    -0.9259704244
    9      H       4.4555746576     0.9712797666    -0.3398170719
   10      H       2.8027963519    -2.9067218062    -2.2086852872
 ----------------------------------------------------------------
 Nuclear Repulsion Energy =    88.4482394000 hartrees
 There are       15 alpha and       15 beta electrons

                       Distance Matrix (Angstroms)
             C (  1)   C (  2)   H (  3)   H (  4)   C (  5)   C (  6)
   C (  2)  1.334198
   H (  3)  1.052399  2.074159
   H (  4)  1.125799  2.166245  1.852403
   C (  5)  2.659867  2.320823  3.707541  2.363113
   C (  6)  3.664526  2.446003  4.515730  4.083800  2.424597
   H (  7)  4.532104  3.420545  5.457972  4.757524  2.685000  1.088378
   H (  8)  4.064803  2.735690  4.727427  4.726095  3.448053  1.142075
   H (  9)  2.080146  1.070613  2.390434  3.105525  3.300581  2.676458
   H ( 10)  3.630986  3.592421  4.640439  2.953390  1.340289  3.558988
             H (  7)   H (  8)   H (  9)
   H (  8)  1.928120
   H (  9)  3.756836  2.495994
   H ( 10)  3.492674  4.658705  4.611208

 Applying Cartesian multipole field
    Component          Value
    ---------          -----
     (2,0,0)        1.00000E-12
     (0,2,0)        2.00000E-11
     (0,0,2)       -3.00000E-11
 Nucleus-field energy     =    -0.0000000002 hartrees
 ENuRep (before)= 88.4482394000
 ENucField = -0.0000000002
 ENuRep (after) = 88.4482393999
 Job number = 2, Threshold = 1.00E-11
Integral type ranges set in mkLRange.C for JobNum: 2  <1-6|1-6>
Symmetry turned off temporarily
Symmetry turned back on
 Job number = 11, Threshold = 1.00E-11
Integral type ranges set in mkLRange.C for JobNum: 11  <1-6|7-7>
 Smallest overlap matrix eigenvalue = 1.92E-01
 Multipole matrices computed through 2nd order
 Guess from superposition of atomic densities
 Warning:  Energy on first SCF cycle will be non-variational
 SAD guess density has 30.000000 electrons
 SCF convergence criterion is 10**(-8)
 A restricted Hartree-Fock SCF calculation will be
 performed using Pulay DIIS extrapolation
 SCF converges when DIIS error is below 1.0E-08
Finding J and K together
 Job number = 22, Threshold = 1.00E-11
Integral type ranges set in mkLRange.C for JobNum: 22  <1-6|1-6>
 MakeJK  time:  CPU       0.14 s  wall       0.14 s
Fock build time:  0.14 s (CPU) 0.14 s (wall)
DIIS Errors:  Max 1.10E+00 RMS 1.55E-01

Current DIIS subspace size = 1
REM_GRID_RESTART_DIIS = 0

 ---------------------------------------
  Cycle       Energy         DIIS Error
 ---------------------------------------
    1    -151.2183998838      1.55E-01  00000
Finding J and K together
 Job number = 22, Threshold = 1.00E-11
Integral type ranges set in mkLRange.C for JobNum: 22  <1-6|1-6>
 MakeJK  time:  CPU       0.17 s  wall       0.18 s
Fock build time:  0.17 s (CPU) 0.18 s (wall)
DIIS Errors:  Max 1.16E-01 RMS 2.13E-02

Current DIIS subspace size = 2
REM_GRID_RESTART_DIIS = 0

    2    -152.2028822602      2.13E-02  00000
Finding J and K together
 Job number = 22, Threshold = 1.00E-11
Integral type ranges set in mkLRange.C for JobNum: 22  <1-6|1-6>
 MakeJK  time:  CPU       0.18 s  wall       0.18 s
Fock build time:  0.18 s (CPU) 0.18 s (wall)
DIIS Errors:  Max 1.49E-01 RMS 2.34E-02

Current DIIS subspace size = 3
REM_GRID_RESTART_DIIS = 0

    3    -152.2423168046      2.34E-02  00000
Finding J and K together
 Job number = 22, Threshold = 1.00E-11
Integral type ranges set in mkLRange.C for JobNum: 22  <1-6|1-6>
 MakeJK  time:  CPU       0.17 s  wall       0.18 s
Fock build time:  0.17 s (CPU) 0.18 s (wall)
DIIS Errors:  Max 1.52E-02 RMS 3.39E-03

Current DIIS subspace size = 4
REM_GRID_RESTART_DIIS = 0

    4    -152.3114727802      3.39E-03  00000
Finding J and K together
 Job number = 22, Threshold = 1.00E-11
Integral type ranges set in mkLRange.C for JobNum: 22  <1-6|1-6>
 MakeJK  time:  CPU       0.12 s  wall       0.11 s
Fock build time:  0.12 s (CPU) 0.11 s (wall)
DIIS Errors:  Max 1.34E-02 RMS 2.32E-03

Current DIIS subspace size = 5
REM_GRID_RESTART_DIIS = 0

    5    -152.3163246796      2.32E-03  00000
Finding J and K together
 Job number = 22, Threshold = 1.00E-11
Integral type ranges set in mkLRange.C for JobNum: 22  <1-6|1-6>
 MakeJK  time:  CPU       0.11 s  wall       0.11 s
Fock build time:  0.11 s (CPU) 0.11 s (wall)
DIIS Errors:  Max 6.21E-03 RMS 1.17E-03

Current DIIS subspace size = 6
REM_GRID_RESTART_DIIS = 0

    6    -152.3185888541      1.17E-03  00000
Finding J and K together
 Job number = 22, Threshold = 1.00E-11
Integral type ranges set in mkLRange.C for JobNum: 22  <1-6|1-6>
 MakeJK  time:  CPU       0.13 s  wall       0.13 s
Fock build time:  0.13 s (CPU) 0.13 s (wall)
DIIS Errors:  Max 3.39E-03 RMS 5.69E-04

Current DIIS subspace size = 7
REM_GRID_RESTART_DIIS = 0

    7    -152.3197000527      5.69E-04  00000
Finding J and K together
 Job number = 22, Threshold = 1.00E-11
Integral type ranges set in mkLRange.C for JobNum: 22  <1-6|1-6>
 MakeJK  time:  CPU       0.14 s  wall       0.14 s
Fock build time:  0.14 s (CPU) 0.14 s (wall)
DIIS Errors:  Max 2.51E-03 RMS 3.61E-04

Current DIIS subspace size = 8
REM_GRID_RESTART_DIIS = 0

    8    -152.3201828420      3.61E-04  00000
Finding J and K together
 Job number = 22, Threshold = 1.00E-11
Integral type ranges set in mkLRange.C for JobNum: 22  <1-6|1-6>
 MakeJK  time:  CPU       0.17 s  wall       0.17 s
Fock build time:  0.17 s (CPU) 0.17 s (wall)
DIIS Errors:  Max 1.97E-03 RMS 2.67E-04

Current DIIS subspace size = 9
REM_GRID_RESTART_DIIS = 0

    9    -152.3203669429      2.67E-04  00000
Finding J and K together
 Job number = 22, Threshold = 1.00E-11
Integral type ranges set in mkLRange.C for JobNum: 22  <1-6|1-6>
 MakeJK  time:  CPU       0.17 s  wall       0.17 s
Fock build time:  0.17 s (CPU) 0.17 s (wall)
DIIS Errors:  Max 1.81E-03 RMS 2.23E-04

Current DIIS subspace size = 10
REM_GRID_RESTART_DIIS = 0

   10    -152.3204874911      2.23E-04  00000
Finding J and K together
 Job number = 22, Threshold = 1.00E-11
Integral type ranges set in mkLRange.C for JobNum: 22  <1-6|1-6>
 MakeJK  time:  CPU       0.17 s  wall       0.19 s
Fock build time:  0.17 s (CPU) 0.19 s (wall)
DIIS Errors:  Max 1.32E-03 RMS 1.31E-04

Current DIIS subspace size = 11
REM_GRID_RESTART_DIIS = 0

   11    -152.3206478712      1.31E-04  00000
Finding J and K together
 Job number = 22, Threshold = 1.00E-11
Integral type ranges set in mkLRange.C for JobNum: 22  <1-6|1-6>
 MakeJK  time:  CPU       0.17 s  wall       0.17 s
Fock build time:  0.17 s (CPU) 0.17 s (wall)
DIIS Errors:  Max 8.85E-04 RMS 9.25E-05

Current DIIS subspace size = 12
REM_GRID_RESTART_DIIS = 0

   12    -152.3206994678      9.25E-05  00000
Finding J and K together
 Job number = 22, Threshold = 1.00E-11
Integral type ranges set in mkLRange.C for JobNum: 22  <1-6|1-6>
 MakeJK  time:  CPU       0.18 s  wall       0.18 s
Fock build time:  0.18 s (CPU) 0.18 s (wall)
DIIS Errors:  Max 6.15E-04 RMS 6.65E-05

Current DIIS subspace size = 13
REM_GRID_RESTART_DIIS = 0

   13    -152.3207219529      6.65E-05  00000
Finding J and K together
 Job number = 22, Threshold = 1.00E-11
Integral type ranges set in mkLRange.C for JobNum: 22  <1-6|1-6>
 MakeJK  time:  CPU       0.16 s  wall       0.16 s
Fock build time:  0.16 s (CPU) 0.16 s (wall)
DIIS Errors:  Max 4.50E-04 RMS 5.22E-05

Current DIIS subspace size = 14
REM_GRID_RESTART_DIIS = 0

   14    -152.3207337350      5.22E-05  00000
Finding J and K together
 Job number = 22, Threshold = 1.00E-11
Integral type ranges set in mkLRange.C for JobNum: 22  <1-6|1-6>
 MakeJK  time:  CPU       0.12 s  wall       0.12 s
Fock build time:  0.12 s (CPU) 0.12 s (wall)
DIIS Errors:  Max 2.00E-04 RMS 2.95E-05

Current DIIS subspace size = 15
REM_GRID_RESTART_DIIS = 0

   15    -152.3207465708      2.95E-05  00000
Finding J and K together
 Job number = 22, Threshold = 1.00E-11
Integral type ranges set in mkLRange.C for JobNum: 22  <1-6|1-6>
 MakeJK  time:  CPU       0.12 s  wall       0.12 s
Fock build time:  0.12 s (CPU) 0.12 s (wall)
DIIS Errors:  Max 5.33E-05 RMS 9.91E-06

Current DIIS subspace size = 15
REM_GRID_RESTART_DIIS = 0

   16    -152.3207496176      9.91E-06  00000
Finding J and K together
 Job number = 22, Threshold = 1.00E-11
Integral type ranges set in mkLRange.C for JobNum: 22  <1-6|1-6>
 MakeJK  time:  CPU       0.12 s  wall       0.13 s
Fock build time:  0.12 s (CPU) 0.13 s (wall)
DIIS Errors:  Max 2.34E-05 RMS 3.80E-06

Current DIIS subspace size = 15
REM_GRID_RESTART_DIIS = 0

   17    -152.3207497836      3.80E-06  00000
Finding J and K together
 Job number = 22, Threshold = 1.00E-11
Integral type ranges set in mkLRange.C for JobNum: 22  <1-6|1-6>
 MakeJK  time:  CPU       0.15 s  wall       0.15 s
Fock build time:  0.15 s (CPU) 0.15 s (wall)
DIIS Errors:  Max 2.68E-06 RMS 5.28E-07

Current DIIS subspace size = 15
REM_GRID_RESTART_DIIS = 0

   18    -152.3207497953      5.28E-07  00000
Finding J and K together
 Job number = 22, Threshold = 1.00E-11
Integral type ranges set in mkLRange.C for JobNum: 22  <1-6|1-6>
 MakeJK  time:  CPU       0.14 s  wall       0.14 s
Fock build time:  0.14 s (CPU) 0.14 s (wall)
DIIS Errors:  Max 8.63E-07 RMS 1.24E-07

Current DIIS subspace size = 15
REM_GRID_RESTART_DIIS = 0

   19    -152.3207497955      1.24E-07  00000
Finding J and K together
 Job number = 22, Threshold = 1.00E-11
Integral type ranges set in mkLRange.C for JobNum: 22  <1-6|1-6>
 MakeJK  time:  CPU       0.13 s  wall       0.13 s
Fock build time:  0.13 s (CPU) 0.13 s (wall)
DIIS Errors:  Max 4.75E-07 RMS 7.16E-08

Current DIIS subspace size = 15
REM_GRID_RESTART_DIIS = 0

   20    -152.3207497956      7.16E-08  00000
Finding J and K together
 Job number = 22, Threshold = 1.00E-11
Integral type ranges set in mkLRange.C for JobNum: 22  <1-6|1-6>
 MakeJK  time:  CPU       0.14 s  wall       0.14 s
Fock build time:  0.14 s (CPU) 0.14 s (wall)
DIIS Errors:  Max 2.89E-07 RMS 3.71E-08

Current DIIS subspace size = 15
REM_GRID_RESTART_DIIS = 0

   21    -152.3207497956      3.71E-08  00000
Finding J and K together
 Job number = 22, Threshold = 1.00E-11
Integral type ranges set in mkLRange.C for JobNum: 22  <1-6|1-6>
 MakeJK  time:  CPU       0.18 s  wall       0.19 s
Fock build time:  0.18 s (CPU) 0.19 s (wall)
DIIS Errors:  Max 4.24E-08 RMS 6.15E-09

Current DIIS subspace size = 15
REM_GRID_RESTART_DIIS = 0

   22    -152.3207497956      6.15E-09  00000 Convergence criterion met
 ---------------------------------------
 SCF time:  CPU 3.32 s  wall 3.38 s
 SCF   energy in the final basis set = -152.32074980
 Total energy in the final basis set = -152.32074980
drvman_main.C: 73: calling DrvMan  Calculating analytic gradient of the SCF energy
drvman.C : 218: Calculating analytic gradient of the SCF energy
drvman.C: 244: calling SCF_Grad for normal SCF gradient
 Job number = 111, Threshold = 1.00E-11
Integral type ranges set in mkLRange.C for JobNum: 11  <1-6|7-7>
Finding J and K together
 ML is being used
 Job number = 122, Threshold = 1.00E-11
Integral type ranges set in mkLRange.C for JobNum: 22  <1-6|1-6>
 MakeJK  time:  CPU       0.46 s  wall       0.49 s
 Gradient of SCF Energy
            1           2           3           4           5           6
    1   0.0401850  -0.0326625  -0.0340945  -0.0130146   0.0700883  -0.0513384
    2   0.0076218   0.1067389  -0.0032557  -0.0387469   0.0327623  -0.0131375
    3   0.0128464   0.0543698  -0.0171022  -0.0172680  -0.0170651  -0.0096540
            7           8           9          10
    1   0.0298728   0.0335154   0.0101889  -0.0527404
    2  -0.0234388   0.0200624  -0.0202580  -0.0683486
    3   0.0039282   0.0087791  -0.0049481  -0.0138861
 Max gradient component =       1.067E-01
 RMS gradient           =       3.702E-02
drvman.C: 248: out of SCF_Grad for normal SCF gradient
 Gradient time:  CPU 0.48 s  wall 0.51 s
 ------------------------------------------------------------------------------
                     drvman        : Timing summary (seconds)
 ------------------------------------------------------------------------------
     job step          cpu (% of tot)      sys (% of tot)     wall (% of tot)
 ------------------------------------------------------------------------------
 ------------------------------------------------------------------------------
   Grand Totals     0.4760E+00          0.1000E-05          0.5110E+00
 ------------------------------------------------------------------------------
drvman_main.C: 77: out of DrvMan  Time for this dynamics step: 3.8 s (CPU) 3.9 s (wall)

TIME STEP #3 (t = 40.000 a.u. = 0.96755 fs)
--------------------------------------
 Instantaneous Temperature = 483.6 K
 ----------------------------------------------------------------
             Standard Nuclear Orientation (Angstroms)
    I     Atom           X                Y                Z
 ----------------------------------------------------------------
    1      C       5.3508468779    -0.8871407925    -0.5893850481
    2      C       4.3418577599    -0.0282525395    -0.7109447347
    3      H       6.2060530491    -0.6201187248    -0.0557118811
    4      H       5.3213494187    -1.9583091754    -0.9773513781
    5      C       3.0546440988    -1.7177628521    -1.6468005856
    6      C       2.0459425074     0.4737324633    -1.3944604431
    7      H       1.1287428557     0.1275512032    -1.8811564693
    8      H       2.0929963811     1.5412773422    -0.9236207203
    9      H       4.4543236473     0.9704572949    -0.3532553698
   10      H       2.8039117232    -2.8843940588    -2.2040084257
 ----------------------------------------------------------------
 Nuclear Repulsion Energy =    88.4436891088 hartrees
 There are       15 alpha and       15 beta electrons

                       Distance Matrix (Angstroms)
             C (  1)   C (  2)   H (  3)   H (  4)   C (  5)   C (  6)
   C (  2)  1.330611
   H (  3)  1.042826  2.062731
   H (  4)  1.139645  2.180710  1.850101
   C (  5)  2.660941  2.321032  3.696994  2.375706
   C (  6)  3.663675  2.447531  4.505028  4.100865  2.425656
   H (  7)  4.530390  3.423124  5.447048  4.769238  2.677537  1.094518
   H (  8)  4.077072  2.750642  4.726747  4.761539  3.474061  1.167714
   H (  9)  2.076098  1.066776  2.384747  3.117515  3.295283  2.670420
   H ( 10)  3.617030  3.571003  4.617000  2.949545  1.316957  3.536509
             H (  7)   H (  8)   H (  9)
   H (  8)  1.960939
   H (  9)  3.755591  2.495399
   H ( 10)  3.461537  4.661691  4.583560

 Applying Cartesian multipole field
    Component          Value
    ---------          -----
     (2,0,0)        1.00000E-12
     (0,2,0)        2.00000E-11
     (0,0,2)       -3.00000E-11
 Nucleus-field energy     =    -0.0000000002 hartrees
 ENuRep (before)= 88.4436891088
 ENucField = -0.0000000002
 ENuRep (after) = 88.4436891087
 Job number = 2, Threshold = 1.00E-11
Integral type ranges set in mkLRange.C for JobNum: 2  <1-6|1-6>
Symmetry turned off temporarily
Symmetry turned back on
 Job number = 11, Threshold = 1.00E-11
Integral type ranges set in mkLRange.C for JobNum: 11  <1-6|7-7>
 Smallest overlap matrix eigenvalue = 1.90E-01
 Multipole matrices computed through 2nd order
 Guess from superposition of atomic densities
 Warning:  Energy on first SCF cycle will be non-variational
 SAD guess density has 30.000000 electrons
 SCF convergence criterion is 10**(-8)
 A restricted Hartree-Fock SCF calculation will be
 performed using Pulay DIIS extrapolation
 SCF converges when DIIS error is below 1.0E-08
Finding J and K together
 Job number = 22, Threshold = 1.00E-11
Integral type ranges set in mkLRange.C for JobNum: 22  <1-6|1-6>
 MakeJK  time:  CPU       0.14 s  wall       0.15 s
Fock build time:  0.14 s (CPU) 0.15 s (wall)
DIIS Errors:  Max 1.11E+00 RMS 1.55E-01

Current DIIS subspace size = 1
REM_GRID_RESTART_DIIS = 0

 ---------------------------------------
  Cycle       Energy         DIIS Error
 ---------------------------------------
    1    -151.2143772936      1.55E-01  00000
Finding J and K together
 Job number = 22, Threshold = 1.00E-11
Integral type ranges set in mkLRange.C for JobNum: 22  <1-6|1-6>
 MakeJK  time:  CPU       0.18 s  wall       0.18 s
Fock build time:  0.18 s (CPU) 0.19 s (wall)
DIIS Errors:  Max 1.13E-01 RMS 2.11E-02

Current DIIS subspace size = 2
REM_GRID_RESTART_DIIS = 0

    2    -152.2034047000      2.11E-02  00000
Finding J and K together
 Job number = 22, Threshold = 1.00E-11
Integral type ranges set in mkLRange.C for JobNum: 22  <1-6|1-6>
 MakeJK  time:  CPU       0.16 s  wall       0.17 s
Fock build time:  0.16 s (CPU) 0.17 s (wall)
DIIS Errors:  Max 1.46E-01 RMS 2.31E-02

Current DIIS subspace size = 3
REM_GRID_RESTART_DIIS = 0

    3    -152.2436549374      2.31E-02  00000
Finding J and K together
 Job number = 22, Threshold = 1.00E-11
Integral type ranges set in mkLRange.C for JobNum: 22  <1-6|1-6>
 MakeJK  time:  CPU       0.18 s  wall       0.19 s
Fock build time:  0.18 s (CPU) 0.19 s (wall)
DIIS Errors:  Max 1.52E-02 RMS 3.43E-03

Current DIIS subspace size = 4
REM_GRID_RESTART_DIIS = 0

    4    -152.3107167822      3.43E-03  00000
Finding J and K together
 Job number = 22, Threshold = 1.00E-11
Integral type ranges set in mkLRange.C for JobNum: 22  <1-6|1-6>
 MakeJK  time:  CPU       0.18 s  wall       0.18 s
Fock build time:  0.18 s (CPU) 0.18 s (wall)
DIIS Errors:  Max 1.35E-02 RMS 2.36E-03

Current DIIS subspace size = 5
REM_GRID_RESTART_DIIS = 0

    5    -152.3156757008      2.36E-03  00000
Finding J and K together
 Job number = 22, Threshold = 1.00E-11
Integral type ranges set in mkLRange.C for JobNum: 22  <1-6|1-6>
 MakeJK  time:  CPU       0.18 s  wall       0.18 s
Fock build time:  0.18 s (CPU) 0.18 s (wall)
DIIS Errors:  Max 6.24E-03 RMS 1.18E-03

Current DIIS subspace size = 6
REM_GRID_RESTART_DIIS = 0

    6    -152.3180182079      1.18E-03  00000
Finding J and K together
 Job number = 22, Threshold = 1.00E-11
Integral type ranges set in mkLRange.C for JobNum: 22  <1-6|1-6>
 MakeJK  time:  CPU       0.15 s  wall       0.15 s
Fock build time:  0.15 s (CPU) 0.15 s (wall)
DIIS Errors:  Max 3.48E-03 RMS 5.71E-04

Current DIIS subspace size = 7
REM_GRID_RESTART_DIIS = 0

    7    -152.3191829856      5.71E-04  00000
Finding J and K together
 Job number = 22, Threshold = 1.00E-11
Integral type ranges set in mkLRange.C for JobNum: 22  <1-6|1-6>
 MakeJK  time:  CPU       0.17 s  wall       0.17 s
Fock build time:  0.17 s (CPU) 0.17 s (wall)
DIIS Errors:  Max 2.53E-03 RMS 3.59E-04

Current DIIS subspace size = 8
REM_GRID_RESTART_DIIS = 0

    8    -152.3196865515      3.59E-04  00000
Finding J and K together
 Job number = 22, Threshold = 1.00E-11
Integral type ranges set in mkLRange.C for JobNum: 22  <1-6|1-6>
 MakeJK  time:  CPU       0.16 s  wall       0.15 s
Fock build time:  0.16 s (CPU) 0.16 s (wall)
DIIS Errors:  Max 2.02E-03 RMS 2.69E-04

Current DIIS subspace size = 9
REM_GRID_RESTART_DIIS = 0

    9    -152.3198607363      2.69E-04  00000
Finding J and K together
 Job number = 22, Threshold = 1.00E-11
Integral type ranges set in mkLRange.C for JobNum: 22  <1-6|1-6>
 MakeJK  time:  CPU       0.17 s  wall       0.17 s
Fock build time:  0.17 s (CPU) 0.17 s (wall)
DIIS Errors:  Max 1.86E-03 RMS 2.26E-04

Current DIIS subspace size = 10
REM_GRID_RESTART_DIIS = 0

   10    -152.3199869404      2.26E-04  00000
Finding J and K together
 Job number = 22, Threshold = 1.00E-11
Integral type ranges set in mkLRange.C for JobNum: 22  <1-6|1-6>
 MakeJK  time:  CPU       0.17 s  wall       0.17 s
Fock build time:  0.17 s (CPU) 0.17 s (wall)
DIIS Errors:  Max 1.34E-03 RMS 1.32E-04

Current DIIS subspace size = 11
REM_GRID_RESTART_DIIS = 0

   11    -152.3201544689      1.32E-04  00000
Finding J and K together
 Job number = 22, Threshold = 1.00E-11
Integral type ranges set in mkLRange.C for JobNum: 22  <1-6|1-6>
 MakeJK  time:  CPU       0.14 s  wall       0.14 s
Fock build time:  0.14 s (CPU) 0.14 s (wall)
DIIS Errors:  Max 8.98E-04 RMS 9.35E-05

Current DIIS subspace size = 12
REM_GRID_RESTART_DIIS = 0

   12    -152.3202071110      9.35E-05  00000
Finding J and K together
 Job number = 22, Threshold = 1.00E-11
Integral type ranges set in mkLRange.C for JobNum: 22  <1-6|1-6>
 MakeJK  time:  CPU       0.15 s  wall       0.15 s
Fock build time:  0.15 s (CPU) 0.15 s (wall)
DIIS Errors:  Max 6.33E-04 RMS 6.81E-05

Current DIIS subspace size = 13
REM_GRID_RESTART_DIIS = 0

   13    -152.3202293195      6.81E-05  00000
Finding J and K together
 Job number = 22, Threshold = 1.00E-11
Integral type ranges set in mkLRange.C for JobNum: 22  <1-6|1-6>
 MakeJK  time:  CPU       0.17 s  wall       0.18 s
Fock build time:  0.17 s (CPU) 0.18 s (wall)
DIIS Errors:  Max 4.50E-04 RMS 5.28E-05

Current DIIS subspace size = 14
REM_GRID_RESTART_DIIS = 0

   14    -152.3202425092      5.28E-05  00000
Finding J and K together
 Job number = 22, Threshold = 1.00E-11
Integral type ranges set in mkLRange.C for JobNum: 22  <1-6|1-6>
 MakeJK  time:  CPU       0.18 s  wall       0.18 s
Fock build time:  0.18 s (CPU) 0.18 s (wall)
DIIS Errors:  Max 1.84E-04 RMS 2.90E-05

Current DIIS subspace size = 15
REM_GRID_RESTART_DIIS = 0

   15    -152.3202559027      2.90E-05  00000
Finding J and K together
 Job number = 22, Threshold = 1.00E-11
Integral type ranges set in mkLRange.C for JobNum: 22  <1-6|1-6>
 MakeJK  time:  CPU       0.18 s  wall       0.18 s
Fock build time:  0.18 s (CPU) 0.18 s (wall)
DIIS Errors:  Max 4.88E-05 RMS 9.56E-06

Current DIIS subspace size = 15
REM_GRID_RESTART_DIIS = 0

   16    -152.3202586111      9.56E-06  00000
Finding J and K together
 Job number = 22, Threshold = 1.00E-11
Integral type ranges set in mkLRange.C for JobNum: 22  <1-6|1-6>
 MakeJK  time:  CPU       0.17 s  wall       0.17 s
Fock build time:  0.17 s (CPU) 0.17 s (wall)
DIIS Errors:  Max 2.30E-05 RMS 3.41E-06

Current DIIS subspace size = 15
REM_GRID_RESTART_DIIS = 0

   17    -152.3202587535      3.41E-06  00000
Finding J and K together
 Job number = 22, Threshold = 1.00E-11
Integral type ranges set in mkLRange.C for JobNum: 22  <1-6|1-6>
 MakeJK  time:  CPU       0.18 s  wall       0.18 s
Fock build time:  0.18 s (CPU) 0.18 s (wall)
DIIS Errors:  Max 3.09E-06 RMS 5.91E-07

Current DIIS subspace size = 15
REM_GRID_RESTART_DIIS = 0

   18    -152.3202587648      5.91E-07  00000
Finding J and K together
 Job number = 22, Threshold = 1.00E-11
Integral type ranges set in mkLRange.C for JobNum: 22  <1-6|1-6>
 MakeJK  time:  CPU       0.14 s  wall       0.14 s
Fock build time:  0.14 s (CPU) 0.14 s (wall)
DIIS Errors:  Max 2.33E-06 RMS 3.95E-07

Current DIIS subspace size = 15
REM_GRID_RESTART_DIIS = 0

   19    -152.3202587651      3.95E-07  00000
Finding J and K together
 Job number = 22, Threshold = 1.00E-11
Integral type ranges set in mkLRange.C for JobNum: 22  <1-6|1-6>
 MakeJK  time:  CPU       0.16 s  wall       0.16 s
Fock build time:  0.16 s (CPU) 0.16 s (wall)
DIIS Errors:  Max 4.80E-07 RMS 8.50E-08

Current DIIS subspace size = 15
REM_GRID_RESTART_DIIS = 0

   20    -152.3202587652      8.50E-08  00000
Finding J and K together
 Job number = 22, Threshold = 1.00E-11
Integral type ranges set in mkLRange.C for JobNum: 22  <1-6|1-6>
 MakeJK  time:  CPU       0.17 s  wall       0.17 s
Fock build time:  0.17 s (CPU) 0.17 s (wall)
DIIS Errors:  Max 2.03E-07 RMS 3.14E-08

Current DIIS subspace size = 15
REM_GRID_RESTART_DIIS = 0

   21    -152.3202587652      3.14E-08  00000
Finding J and K together
 Job number = 22, Threshold = 1.00E-11
Integral type ranges set in mkLRange.C for JobNum: 22  <1-6|1-6>
 MakeJK  time:  CPU       0.17 s  wall       0.17 s
Fock build time:  0.17 s (CPU) 0.18 s (wall)
DIIS Errors:  Max 4.70E-08 RMS 6.28E-09

Current DIIS subspace size = 15
REM_GRID_RESTART_DIIS = 0

   22    -152.3202587652      6.28E-09  00000 Convergence criterion met
 ---------------------------------------
 SCF time:  CPU 3.67 s  wall 3.72 s
 SCF   energy in the final basis set = -152.32025877
 Total energy in the final basis set = -152.32025877
drvman_main.C: 73: calling DrvMan  Calculating analytic gradient of the SCF energy
drvman.C : 218: Calculating analytic gradient of the SCF energy
drvman.C: 244: calling SCF_Grad for normal SCF gradient
 Job number = 111, Threshold = 1.00E-11
Integral type ranges set in mkLRange.C for JobNum: 11  <1-6|7-7>
Finding J and K together
 ML is being used
 Job number = 122, Threshold = 1.00E-11
Integral type ranges set in mkLRange.C for JobNum: 22  <1-6|1-6>
 MakeJK  time:  CPU       0.42 s  wall       0.42 s
 Gradient of SCF Energy
            1           2           3           4           5           6
    1   0.0443189  -0.0293678  -0.0430399  -0.0113379   0.0690348  -0.0490291
    2   0.0229869   0.1074461  -0.0065567  -0.0479832   0.0276153  -0.0266859
    3   0.0186205   0.0590573  -0.0220283  -0.0202463  -0.0215808  -0.0138470
            7           8           9          10
    1   0.0266895   0.0351400   0.0102474  -0.0526558
    2  -0.0260019   0.0353569  -0.0231947  -0.0629826
    3   0.0012013   0.0158095  -0.0069577  -0.0100286
 Max gradient component =       1.074E-01
 RMS gradient           =       3.869E-02
drvman.C: 248: out of SCF_Grad for normal SCF gradient
 Gradient time:  CPU 0.44 s  wall 0.44 s
 ------------------------------------------------------------------------------
                     drvman        : Timing summary (seconds)
 ------------------------------------------------------------------------------
     job step          cpu (% of tot)      sys (% of tot)     wall (% of tot)
 ------------------------------------------------------------------------------
 ------------------------------------------------------------------------------
   Grand Totals     0.4360E+00          0.2000E-05          0.4402E+00
 ------------------------------------------------------------------------------
drvman_main.C: 77: out of DrvMan  Time for this dynamics step: 4.1 s (CPU) 4.2 s (wall)

TIME STEP #4 (t = 60.000 a.u. = 1.45133 fs)
--------------------------------------
 Instantaneous Temperature = 474.8 K
 ----------------------------------------------------------------
             Standard Nuclear Orientation (Angstroms)
    I     Atom           X                Y                Z
 ----------------------------------------------------------------
    1      C       5.3500038388    -0.8851098971    -0.5888374734
    2      C       4.3430751759    -0.0311263434    -0.7116093357
    3      H       6.1921476205    -0.6258375688    -0.0366825943
    4      H       5.3354679998    -1.9646464773    -0.9772324546
    5      C       3.0541298013    -1.7194102714    -1.6469514442
    6      C       2.0463214434     0.4737358624    -1.3952796500
    7      H       1.1230784298     0.1155838538    -1.8810847792
    8      H       2.0908512586     1.5634778236    -0.9230925248
    9      H       4.4518919706     0.9723072259    -0.3658920320
   10      H       2.8110938942    -2.8548096877    -2.1981761072
 ----------------------------------------------------------------
 Nuclear Repulsion Energy =    88.4620885927 hartrees
 There are       15 alpha and       15 beta electrons

                       Distance Matrix (Angstroms)
             C (  1)   C (  2)   H (  3)   H (  4)   C (  5)   C (  6)
   C (  2)  1.325996
   H (  3)  1.039857  2.056277
   H (  4)  1.147371  2.189497  1.846874
   C (  5)  2.662086  2.320894  3.692699  2.390223
   C (  6)  3.662121  2.448953  4.499191  4.115696  2.426707
   H (  7)  4.531908  3.428932  5.444905  4.784196  2.674132  1.103022
   H (  8)  4.090157  2.767671  4.732806  4.793551  3.497032  1.188478
   H (  9)  2.075165  1.066884  2.385568  3.127322  3.292445  2.663641
   H ( 10)  3.593849  3.539779  4.590413  2.942033  1.285320  3.508381
             H (  7)   H (  8)   H (  9)
   H (  8)  1.987644
   H (  9)  3.756432  2.496892
   H ( 10)  3.431207  4.654659  4.549319

 Applying Cartesian multipole field
    Component          Value
    ---------          -----
     (2,0,0)        1.00000E-12
     (0,2,0)        2.00000E-11
     (0,0,2)       -3.00000E-11
 Nucleus-field energy     =    -0.0000000002 hartrees
 ENuRep (before)= 88.4620885927
 ENucField = -0.0000000002
 ENuRep (after) = 88.4620885926
 Job number = 2, Threshold = 1.00E-11
Integral type ranges set in mkLRange.C for JobNum: 2  <1-6|1-6>
Symmetry turned off temporarily
Symmetry turned back on
 Job number = 11, Threshold = 1.00E-11
Integral type ranges set in mkLRange.C for JobNum: 11  <1-6|7-7>
 Smallest overlap matrix eigenvalue = 1.89E-01
 Multipole matrices computed through 2nd order
 Guess from superposition of atomic densities
 Warning:  Energy on first SCF cycle will be non-variational
 SAD guess density has 30.000000 electrons
 SCF convergence criterion is 10**(-8)
 A restricted Hartree-Fock SCF calculation will be
 performed using Pulay DIIS extrapolation
 SCF converges when DIIS error is below 1.0E-08
Finding J and K together
 Job number = 22, Threshold = 1.00E-11
Integral type ranges set in mkLRange.C for JobNum: 22  <1-6|1-6>
 MakeJK  time:  CPU       0.14 s  wall       0.17 s
Fock build time:  0.14 s (CPU) 0.17 s (wall)
DIIS Errors:  Max 1.12E+00 RMS 1.55E-01

Current DIIS subspace size = 1
REM_GRID_RESTART_DIIS = 0

 ---------------------------------------
  Cycle       Energy         DIIS Error
 ---------------------------------------
    1    -151.2155718976      1.55E-01  00000
Finding J and K together
 Job number = 22, Threshold = 1.00E-11
Integral type ranges set in mkLRange.C for JobNum: 22  <1-6|1-6>
 MakeJK  time:  CPU       0.17 s  wall       0.17 s
Fock build time:  0.17 s (CPU) 0.17 s (wall)
DIIS Errors:  Max 1.13E-01 RMS 2.08E-02

Current DIIS subspace size = 2
REM_GRID_RESTART_DIIS = 0

    2    -152.2077295887      2.08E-02  00000
Finding J and K together
 Job number = 22, Threshold = 1.00E-11
Integral type ranges set in mkLRange.C for JobNum: 22  <1-6|1-6>
 MakeJK  time:  CPU       0.17 s  wall       0.17 s
Fock build time:  0.17 s (CPU) 0.17 s (wall)
DIIS Errors:  Max 1.41E-01 RMS 2.26E-02

Current DIIS subspace size = 3
REM_GRID_RESTART_DIIS = 0

    3    -152.2489457730      2.26E-02  00000
Finding J and K together
 Job number = 22, Threshold = 1.00E-11
Integral type ranges set in mkLRange.C for JobNum: 22  <1-6|1-6>
 MakeJK  time:  CPU       0.17 s  wall       0.17 s
Fock build time:  0.17 s (CPU) 0.17 s (wall)
DIIS Errors:  Max 1.51E-02 RMS 3.47E-03

Current DIIS subspace size = 4
REM_GRID_RESTART_DIIS = 0

    4    -152.3125186309      3.47E-03  00000
Finding J and K together
 Job number = 22, Threshold = 1.00E-11
Integral type ranges set in mkLRange.C for JobNum: 22  <1-6|1-6>
 MakeJK  time:  CPU       0.18 s  wall       0.17 s
Fock build time:  0.18 s (CPU) 0.17 s (wall)
DIIS Errors:  Max 1.34E-02 RMS 2.40E-03

Current DIIS subspace size = 5
REM_GRID_RESTART_DIIS = 0

    5    -152.3176273680      2.40E-03  00000
Finding J and K together
 Job number = 22, Threshold = 1.00E-11
Integral type ranges set in mkLRange.C for JobNum: 22  <1-6|1-6>
 MakeJK  time:  CPU       0.17 s  wall       0.17 s
Fock build time:  0.17 s (CPU) 0.17 s (wall)
DIIS Errors:  Max 6.22E-03 RMS 1.19E-03

Current DIIS subspace size = 6
REM_GRID_RESTART_DIIS = 0

    6    -152.3200678834      1.19E-03  00000
Finding J and K together
 Job number = 22, Threshold = 1.00E-11
Integral type ranges set in mkLRange.C for JobNum: 22  <1-6|1-6>
 MakeJK  time:  CPU       0.16 s  wall       0.16 s
Fock build time:  0.16 s (CPU) 0.16 s (wall)
DIIS Errors:  Max 3.59E-03 RMS 5.74E-04

Current DIIS subspace size = 7
REM_GRID_RESTART_DIIS = 0

    7    -152.3212997267      5.74E-04  00000
Finding J and K together
 Job number = 22, Threshold = 1.00E-11
Integral type ranges set in mkLRange.C for JobNum: 22  <1-6|1-6>
 MakeJK  time:  CPU       0.16 s  wall       0.16 s
Fock build time:  0.16 s (CPU) 0.16 s (wall)
DIIS Errors:  Max 2.56E-03 RMS 3.57E-04

Current DIIS subspace size = 8
REM_GRID_RESTART_DIIS = 0

    8    -152.3218250179      3.57E-04  00000
Finding J and K together
 Job number = 22, Threshold = 1.00E-11
Integral type ranges set in mkLRange.C for JobNum: 22  <1-6|1-6>
 MakeJK  time:  CPU       0.16 s  wall       0.16 s
Fock build time:  0.16 s (CPU) 0.16 s (wall)
DIIS Errors:  Max 2.08E-03 RMS 2.72E-04

Current DIIS subspace size = 9
REM_GRID_RESTART_DIIS = 0

    9    -152.3219917743      2.72E-04  00000
Finding J and K together
 Job number = 22, Threshold = 1.00E-11
Integral type ranges set in mkLRange.C for JobNum: 22  <1-6|1-6>
 MakeJK  time:  CPU       0.17 s  wall       0.18 s
Fock build time:  0.17 s (CPU) 0.18 s (wall)
DIIS Errors:  Max 1.90E-03 RMS 2.28E-04

Current DIIS subspace size = 10
REM_GRID_RESTART_DIIS = 0

   10    -152.3221270832      2.28E-04  00000
Finding J and K together
 Job number = 22, Threshold = 1.00E-11
Integral type ranges set in mkLRange.C for JobNum: 22  <1-6|1-6>
 MakeJK  time:  CPU       0.18 s  wall       0.18 s
Fock build time:  0.18 s (CPU) 0.18 s (wall)
DIIS Errors:  Max 1.36E-03 RMS 1.30E-04

Current DIIS subspace size = 11
REM_GRID_RESTART_DIIS = 0

   11    -152.3222985585      1.30E-04  00000
Finding J and K together
 Job number = 22, Threshold = 1.00E-11
Integral type ranges set in mkLRange.C for JobNum: 22  <1-6|1-6>
 MakeJK  time:  CPU       0.18 s  wall       0.20 s
Fock build time:  0.18 s (CPU) 0.20 s (wall)
DIIS Errors:  Max 9.01E-04 RMS 9.27E-05

Current DIIS subspace size = 12
REM_GRID_RESTART_DIIS = 0

   12    -152.3223493813      9.27E-05  00000
Finding J and K together
 Job number = 22, Threshold = 1.00E-11
Integral type ranges set in mkLRange.C for JobNum: 22  <1-6|1-6>
 MakeJK  time:  CPU       0.17 s  wall       0.18 s
Fock build time:  0.17 s (CPU) 0.19 s (wall)
DIIS Errors:  Max 6.44E-04 RMS 6.89E-05

Current DIIS subspace size = 13
REM_GRID_RESTART_DIIS = 0

   13    -152.3223702209      6.89E-05  00000
Finding J and K together
 Job number = 22, Threshold = 1.00E-11
Integral type ranges set in mkLRange.C for JobNum: 22  <1-6|1-6>
 MakeJK  time:  CPU       0.18 s  wall       0.19 s
Fock build time:  0.18 s (CPU) 0.19 s (wall)
DIIS Errors:  Max 4.30E-04 RMS 5.18E-05

Current DIIS subspace size = 14
REM_GRID_RESTART_DIIS = 0

   14    -152.3223850864      5.18E-05  00000
Finding J and K together
 Job number = 22, Threshold = 1.00E-11
Integral type ranges set in mkLRange.C for JobNum: 22  <1-6|1-6>
 MakeJK  time:  CPU       0.17 s  wall       0.17 s
Fock build time:  0.17 s (CPU) 0.18 s (wall)
DIIS Errors:  Max 1.53E-04 RMS 2.66E-05

Current DIIS subspace size = 15
REM_GRID_RESTART_DIIS = 0

   15    -152.3223979180      2.66E-05  00000
Finding J and K together
 Job number = 22, Threshold = 1.00E-11
Integral type ranges set in mkLRange.C for JobNum: 22  <1-6|1-6>
 MakeJK  time:  CPU       0.18 s  wall       0.18 s
Fock build time:  0.18 s (CPU) 0.18 s (wall)
DIIS Errors:  Max 4.83E-05 RMS 8.72E-06

Current DIIS subspace size = 15
REM_GRID_RESTART_DIIS = 0

   16    -152.3223999658      8.72E-06  00000
Finding J and K together
 Job number = 22, Threshold = 1.00E-11
Integral type ranges set in mkLRange.C for JobNum: 22  <1-6|1-6>
 MakeJK  time:  CPU       0.16 s  wall       0.18 s
Fock build time:  0.16 s (CPU) 0.18 s (wall)
DIIS Errors:  Max 2.03E-05 RMS 2.88E-06

Current DIIS subspace size = 15
REM_GRID_RESTART_DIIS = 0

   17    -152.3224000600      2.88E-06  00000
Finding J and K together
 Job number = 22, Threshold = 1.00E-11
Integral type ranges set in mkLRange.C for JobNum: 22  <1-6|1-6>
 MakeJK  time:  CPU       0.10 s  wall       0.10 s
Fock build time:  0.10 s (CPU) 0.10 s (wall)
DIIS Errors:  Max 2.61E-06 RMS 5.22E-07

Current DIIS subspace size = 15
REM_GRID_RESTART_DIIS = 0

   18    -152.3224000686      5.22E-07  00000
Finding J and K together
 Job number = 22, Threshold = 1.00E-11
Integral type ranges set in mkLRange.C for JobNum: 22  <1-6|1-6>
 MakeJK  time:  CPU       0.10 s  wall       0.10 s
Fock build time:  0.10 s (CPU) 0.10 s (wall)
DIIS Errors:  Max 2.15E-06 RMS 3.62E-07

Current DIIS subspace size = 15
REM_GRID_RESTART_DIIS = 0

   19    -152.3224000690      3.62E-07  00000
Finding J and K together
 Job number = 22, Threshold = 1.00E-11
Integral type ranges set in mkLRange.C for JobNum: 22  <1-6|1-6>
 MakeJK  time:  CPU       0.15 s  wall       0.16 s
Fock build time:  0.15 s (CPU) 0.16 s (wall)
DIIS Errors:  Max 5.24E-07 RMS 9.05E-08

Current DIIS subspace size = 15
REM_GRID_RESTART_DIIS = 0

   20    -152.3224000690      9.05E-08  00000
Finding J and K together
 Job number = 22, Threshold = 1.00E-11
Integral type ranges set in mkLRange.C for JobNum: 22  <1-6|1-6>
 MakeJK  time:  CPU       0.17 s  wall       0.17 s
Fock build time:  0.17 s (CPU) 0.17 s (wall)
DIIS Errors:  Max 2.04E-07 RMS 3.26E-08

Current DIIS subspace size = 15
REM_GRID_RESTART_DIIS = 0

   21    -152.3224000690      3.26E-08  00000
Finding J and K together
 Job number = 22, Threshold = 1.00E-11
Integral type ranges set in mkLRange.C for JobNum: 22  <1-6|1-6>
 MakeJK  time:  CPU       0.12 s  wall       0.12 s
Fock build time:  0.12 s (CPU) 0.12 s (wall)
DIIS Errors:  Max 3.58E-08 RMS 5.28E-09

Current DIIS subspace size = 15
REM_GRID_RESTART_DIIS = 0

   22    -152.3224000690      5.28E-09  00000 Convergence criterion met
 ---------------------------------------
 SCF time:  CPU 3.56 s  wall 3.67 s
 SCF   energy in the final basis set = -152.32240007
 Total energy in the final basis set = -152.32240007
drvman_main.C: 73: calling DrvMan  Calculating analytic gradient of the SCF energy
drvman.C : 218: Calculating analytic gradient of the SCF energy
drvman.C: 244: calling SCF_Grad for normal SCF gradient
 Job number = 111, Threshold = 1.00E-11
Integral type ranges set in mkLRange.C for JobNum: 11  <1-6|7-7>
Finding J and K together
 ML is being used
 Job number = 122, Threshold = 1.00E-11
Integral type ranges set in mkLRange.C for JobNum: 22  <1-6|1-6>
 MakeJK  time:  CPU       0.42 s  wall       0.50 s
 Gradient of SCF Energy
            1           2           3           4           5           6
    1   0.0409452  -0.0252451  -0.0460075  -0.0091318   0.0665245  -0.0437749
    2   0.0332965   0.1044303  -0.0082463  -0.0527811   0.0193855  -0.0364054
    3   0.0193022   0.0627532  -0.0236983  -0.0214224  -0.0285979  -0.0143343
            7           8           9          10
    1   0.0217684   0.0360763   0.0108268  -0.0519819
    2  -0.0286485   0.0463965  -0.0224848  -0.0549426
    3  -0.0024225   0.0203237  -0.0075375  -0.0043662
 Max gradient component =       1.044E-01
 RMS gradient           =       3.889E-02
drvman.C: 248: out of SCF_Grad for normal SCF gradient
 Gradient time:  CPU 0.43 s  wall 0.51 s
 ------------------------------------------------------------------------------
                     drvman        : Timing summary (seconds)
 ------------------------------------------------------------------------------
     job step          cpu (% of tot)      sys (% of tot)     wall (% of tot)
 ------------------------------------------------------------------------------
 ------------------------------------------------------------------------------
   Grand Totals     0.4320E+00          0.2000E-05          0.5144E+00
 ------------------------------------------------------------------------------
drvman_main.C: 77: out of DrvMan  Time for this dynamics step: 4.0 s (CPU) 4.2 s (wall)

TIME STEP #5 (t = 80.000 a.u. = 1.93511 fs)
--------------------------------------
 Instantaneous Temperature = 520.3 K
 ----------------------------------------------------------------
             Standard Nuclear Orientation (Angstroms)
    I     Atom           X                Y                Z
 ----------------------------------------------------------------
    1      C       5.3487645916    -0.8834011966    -0.5884766766
    2      C       4.3445368770    -0.0350106703    -0.7128811701
    3      H       6.1835430006    -0.6306063031    -0.0149228767
    4      H       5.3506387179    -1.9649025340    -0.9746453231
    5      C       3.0529717771    -1.7212452752    -1.6468255747
    6      C       2.0471239687     0.4740915399    -1.3959601509
    7      H       1.1149059291     0.1069172775    -1.8807339761
    8      H       2.0845495596     1.5803326725    -0.9249059503
    9      H       4.4482128757     0.9767477741    -0.3776602568
   10      H       2.8242652268    -2.8188950364    -2.1918407267
 ----------------------------------------------------------------
 Nuclear Repulsion Energy =    88.5069436583 hartrees
 There are       15 alpha and       15 beta electrons

                       Distance Matrix (Angstroms)
             C (  1)   C (  2)   H (  3)   H (  4)   C (  5)   C (  6)
   C (  2)  1.320498
   H (  3)  1.043899  2.055194
   H (  4)  1.148379  2.192087  1.842591
   C (  5)  2.663222  2.320297  3.695007  2.406339
   C (  6)  3.660006  2.450283  4.498620  4.127882  2.427791
   H (  7)  4.536102  3.437229  5.451264  4.801548  2.674508  1.113038
   H (  8)  4.103446  2.786006  4.745321  4.820633  3.515598  1.202939
   H (  9)  2.077400  1.070877  2.393018  3.134337  3.291906  2.656092
   H ( 10)  3.562304  3.499794  4.562053  2.931455  1.246669  3.475793
             H (  7)   H (  8)   H (  9)
   H (  8)  2.006183
   H (  9)  3.758560  2.500139
   H ( 10)  3.402804  4.637403  4.509475

 Applying Cartesian multipole field
    Component          Value
    ---------          -----
     (2,0,0)        1.00000E-12
     (0,2,0)        2.00000E-11
     (0,0,2)       -3.00000E-11
 Nucleus-field energy     =    -0.0000000002 hartrees
 ENuRep (before)= 88.5069436583
 ENucField = -0.0000000002
 ENuRep (after) = 88.5069436581
 Job number = 2, Threshold = 1.00E-11
Integral type ranges set in mkLRange.C for JobNum: 2  <1-6|1-6>
Symmetry turned off temporarily
Symmetry turned back on
 Job number = 11, Threshold = 1.00E-11
Integral type ranges set in mkLRange.C for JobNum: 11  <1-6|7-7>
 Smallest overlap matrix eigenvalue = 1.87E-01
 Multipole matrices computed through 2nd order
 Guess from superposition of atomic densities
 Warning:  Energy on first SCF cycle will be non-variational
 SAD guess density has 30.000000 electrons
 SCF convergence criterion is 10**(-8)
 A restricted Hartree-Fock SCF calculation will be
 performed using Pulay DIIS extrapolation
 SCF converges when DIIS error is below 1.0E-08
Finding J and K together
 Job number = 22, Threshold = 1.00E-11
Integral type ranges set in mkLRange.C for JobNum: 22  <1-6|1-6>
 MakeJK  time:  CPU       0.14 s  wall       0.15 s
Fock build time:  0.14 s (CPU) 0.15 s (wall)
DIIS Errors:  Max 1.13E+00 RMS 1.55E-01

Current DIIS subspace size = 1
REM_GRID_RESTART_DIIS = 0

 ---------------------------------------
  Cycle       Energy         DIIS Error
 ---------------------------------------
    1    -151.2230891674      1.55E-01  00000
Finding J and K together
[...]
     (0,0,2)       -3.00000E-11
 Nucleus-field energy     =     0.0000000028 hartrees
 ENuRep (before)= 73.4388506057
 ENucField = 0.0000000028
 ENuRep (after) = 73.4388506085
 Job number = 2, Threshold = 1.00E-11
Integral type ranges set in mkLRange.C for JobNum: 2  <1-6|1-6>
Symmetry turned off temporarily
Symmetry turned back on
 Job number = 11, Threshold = 1.00E-11
Integral type ranges set in mkLRange.C for JobNum: 11  <1-6|7-7>
 Smallest overlap matrix eigenvalue = 1.53E-01
 Multipole matrices computed through 2nd order
 Extrapolating the Fock matrix using 12 points and a 6th-order polynomial
 Alpha Fock matrix extrapolation
 Skip SCF guess (diagonalize extrapolated Fock matrix instead)
 SCF convergence criterion is 10**(-8)
 A restricted Hartree-Fock SCF calculation will be
 performed using Pulay DIIS extrapolation
 SCF converges when DIIS error is below 1.0E-08
Extrapolated Fock matrix used in lieu of Fock build
Fock build time:  0.00 s (CPU) 0.00 s (wall)
DIIS Errors:  Max 2.36E-01 RMS 2.72E-02

Current DIIS subspace size = 1
REM_GRID_RESTART_DIIS = 0

 ---------------------------------------
  Cycle       Energy         DIIS Error
 ---------------------------------------
    1    -277.3394571113      2.72E-02  00000
Finding J and K together
 Job number = 22, Threshold = 1.00E-11
Integral type ranges set in mkLRange.C for JobNum: 22  <1-6|1-6>
 MakeJK  time:  CPU       0.08 s  wall       0.08 s
Fock build time:  0.08 s (CPU) 0.08 s (wall)
DIIS Errors:  Max 2.89E-01 RMS 2.43E-02

Current DIIS subspace size = 2
REM_GRID_RESTART_DIIS = 0

    2    -152.5432313673      2.43E-02  00000
Finding J and K together
 Job number = 22, Threshold = 1.00E-11
Integral type ranges set in mkLRange.C for JobNum: 22  <1-6|1-6>
 MakeJK  time:  CPU       0.11 s  wall       0.11 s
Fock build time:  0.11 s (CPU) 0.11 s (wall)
DIIS Errors:  Max 1.40E-01 RMS 1.21E-02

Current DIIS subspace size = 3
REM_GRID_RESTART_DIIS = 0

    3    -152.5535941172      1.21E-02  00000
Finding J and K together
 Job number = 22, Threshold = 1.00E-11
Integral type ranges set in mkLRange.C for JobNum: 22  <1-6|1-6>
 MakeJK  time:  CPU       0.12 s  wall       0.12 s
Fock build time:  0.12 s (CPU) 0.12 s (wall)
DIIS Errors:  Max 1.35E-02 RMS 1.34E-03

Current DIIS subspace size = 4
REM_GRID_RESTART_DIIS = 0

    4    -152.5574258068      1.34E-03  00000
Finding J and K together
 Job number = 22, Threshold = 1.00E-11
Integral type ranges set in mkLRange.C for JobNum: 22  <1-6|1-6>
 MakeJK  time:  CPU       0.10 s  wall       0.10 s
Fock build time:  0.10 s (CPU) 0.10 s (wall)
DIIS Errors:  Max 2.44E-03 RMS 2.99E-04

Current DIIS subspace size = 5
REM_GRID_RESTART_DIIS = 0

    5    -152.5575372474      2.99E-04  00000
Finding J and K together
 Job number = 22, Threshold = 1.00E-11
Integral type ranges set in mkLRange.C for JobNum: 22  <1-6|1-6>
 MakeJK  time:  CPU       0.12 s  wall       0.12 s
Fock build time:  0.12 s (CPU) 0.12 s (wall)
DIIS Errors:  Max 5.53E-04 RMS 7.18E-05

Current DIIS subspace size = 6
REM_GRID_RESTART_DIIS = 0

    6    -152.5575513966      7.18E-05  00000
Finding J and K together
 Job number = 22, Threshold = 1.00E-11
Integral type ranges set in mkLRange.C for JobNum: 22  <1-6|1-6>
 MakeJK  time:  CPU       0.12 s  wall       0.12 s
Fock build time:  0.12 s (CPU) 0.12 s (wall)
DIIS Errors:  Max 8.16E-05 RMS 1.27E-05

Current DIIS subspace size = 7
REM_GRID_RESTART_DIIS = 0

    7    -152.5575521465      1.27E-05  00000
Finding J and K together
 Job number = 22, Threshold = 1.00E-11
Integral type ranges set in mkLRange.C for JobNum: 22  <1-6|1-6>
 MakeJK  time:  CPU       0.12 s  wall       0.12 s
Fock build time:  0.12 s (CPU) 0.12 s (wall)
DIIS Errors:  Max 4.87E-05 RMS 5.86E-06

Current DIIS subspace size = 8
REM_GRID_RESTART_DIIS = 0

    8    -152.5575521891      5.86E-06  00000
Finding J and K together
 Job number = 22, Threshold = 1.00E-11
Integral type ranges set in mkLRange.C for JobNum: 22  <1-6|1-6>
 MakeJK  time:  CPU       0.12 s  wall       0.12 s
Fock build time:  0.12 s (CPU) 0.12 s (wall)
DIIS Errors:  Max 2.11E-05 RMS 2.15E-06

Current DIIS subspace size = 9
REM_GRID_RESTART_DIIS = 0

    9    -152.5575521971      2.15E-06  00000
Finding J and K together
 Job number = 22, Threshold = 1.00E-11
Integral type ranges set in mkLRange.C for JobNum: 22  <1-6|1-6>
 MakeJK  time:  CPU       0.12 s  wall       0.13 s
Fock build time:  0.12 s (CPU) 0.13 s (wall)
DIIS Errors:  Max 1.08E-05 RMS 9.28E-07

Current DIIS subspace size = 10
REM_GRID_RESTART_DIIS = 0

   10    -152.5575522010      9.28E-07  00000
Finding J and K together
 Job number = 22, Threshold = 1.00E-11
Integral type ranges set in mkLRange.C for JobNum: 22  <1-6|1-6>
 MakeJK  time:  CPU       0.12 s  wall       0.12 s
Fock build time:  0.12 s (CPU) 0.12 s (wall)
DIIS Errors:  Max 4.47E-06 RMS 3.97E-07

Current DIIS subspace size = 11
REM_GRID_RESTART_DIIS = 0

   11    -152.5575522017      3.97E-07  00000
Finding J and K together
 Job number = 22, Threshold = 1.00E-11
Integral type ranges set in mkLRange.C for JobNum: 22  <1-6|1-6>
 MakeJK  time:  CPU       0.11 s  wall       0.12 s
Fock build time:  0.11 s (CPU) 0.12 s (wall)
DIIS Errors:  Max 1.48E-06 RMS 1.52E-07

Current DIIS subspace size = 12
REM_GRID_RESTART_DIIS = 0

   12    -152.5575522019      1.52E-07  00000
Finding J and K together
 Job number = 22, Threshold = 1.00E-11
Integral type ranges set in mkLRange.C for JobNum: 22  <1-6|1-6>
 MakeJK  time:  CPU       0.12 s  wall       0.12 s
Fock build time:  0.12 s (CPU) 0.12 s (wall)
DIIS Errors:  Max 1.49E-07 RMS 3.19E-08

Current DIIS subspace size = 13
REM_GRID_RESTART_DIIS = 0

   13    -152.5575522019      3.19E-08  00000
Finding J and K together
 Job number = 22, Threshold = 1.00E-11
Integral type ranges set in mkLRange.C for JobNum: 22  <1-6|1-6>
 MakeJK  time:  CPU       0.12 s  wall       0.12 s
Fock build time:  0.12 s (CPU) 0.12 s (wall)
DIIS Errors:  Max 7.67E-08 RMS 8.00E-09

Current DIIS subspace size = 14
REM_GRID_RESTART_DIIS = 0

   14    -152.5575522019      8.00E-09  00000 Convergence criterion met
 ---------------------------------------
 SCF time:  CPU 1.51 s  wall 1.54 s
 SCF   energy in the final basis set = -152.55755220
 Total energy in the final basis set = -152.55755220
drvman_main.C: 73: calling DrvMan  Calculating analytic gradient of the SCF energy
drvman.C : 218: Calculating analytic gradient of the SCF energy
drvman.C: 244: calling SCF_Grad for normal SCF gradient
 Job number = 111, Threshold = 1.00E-11
Integral type ranges set in mkLRange.C for JobNum: 11  <1-6|7-7>
Finding J and K together
 ML is being used
 Job number = 122, Threshold = 1.00E-11
Integral type ranges set in mkLRange.C for JobNum: 22  <1-6|1-6>
 MakeJK  time:  CPU       0.24 s  wall       0.25 s
 Gradient of SCF Energy
            1           2           3           4           5           6
    1  -0.0658351   0.1636963  -0.0161144   0.0139124  -0.0773542  -0.0077828
    2   0.0747220   0.0992000  -0.0593637   0.0059491  -0.1471572  -0.0689717
    3  -0.2183646   0.1964704   0.0635143   0.0203312  -0.0158508   0.0766364
            7           8           9          10
    1   0.0071994   0.0005976  -0.0896732   0.0713540
    2   0.0296456   0.0393302  -0.0543264   0.0809722
    3  -0.0340664  -0.0425810  -0.0782898   0.0322003
 Max gradient component =       2.184E-01
 RMS gradient           =       8.468E-02
drvman.C: 248: out of SCF_Grad for normal SCF gradient
 Gradient time:  CPU 0.26 s  wall 0.26 s
 ------------------------------------------------------------------------------
                     drvman        : Timing summary (seconds)
 ------------------------------------------------------------------------------
     job step          cpu (% of tot)      sys (% of tot)     wall (% of tot)
 ------------------------------------------------------------------------------
 ------------------------------------------------------------------------------
   Grand Totals     0.2560E+00          0.1000E-05          0.2630E+00
 ------------------------------------------------------------------------------
drvman_main.C: 77: out of DrvMan  Time for this dynamics step: 1.8 s (CPU) 1.8 s (wall)

TIME STEP #400 (t = 7980.000 a.u. = 193.02697 fs)
--------------------------------------
 Instantaneous Temperature = 5461.4 K
 ----------------------------------------------------------------
             Standard Nuclear Orientation (Angstroms)
    I     Atom           X                Y                Z
 ----------------------------------------------------------------
    1      C       6.6112514668    -1.8695801583     0.3356589533
    2      C       6.0189305684    -1.9912201376    -0.7321861949
    3      H       6.5501067098    -2.8038867728     1.1487167990
    4      H       7.1365361449    -0.9989759291     0.7790817292
    5      C       5.3251976764    -0.8105875660    -1.3337528943
    6      C      -2.9322595217     2.3207419123    -2.5704531502
    7      H      -3.7499859070     2.9912045923    -3.0854043623
    8      H      -2.1638130852     2.8437961706    -3.3734585339
    9      H       5.2820316403    -2.8595813266    -1.3425862977
   10      H       6.2159811754     0.2807462288    -1.0079348011
 ----------------------------------------------------------------
 Nuclear Repulsion Energy =    73.0004900317 hartrees
 There are       15 alpha and       15 beta electrons

                       Distance Matrix (Angstroms)
             C (  1)   C (  2)   H (  3)   H (  4)   C (  5)   C (  6)
   C (  2)  1.227165
   H (  3)  1.240053  2.116689
   H (  4)  1.109279  2.125446  1.933451
   C (  5)  2.358460  1.495674  3.411202  2.789356
   C (  6) 10.820485 10.104259 11.402163 11.118478  8.917413
   H (  7) 11.945130 11.215789 12.553994 12.221790  9.994041  1.176168
   H (  8) 10.628981  9.864634 11.326023 10.886091  8.579056  1.228378
   H (  9)  2.358693  1.292153  2.796016  3.376761  2.049467  9.788666
   H ( 10)  2.566201  2.297106  3.778591  2.382968  1.445912  9.502282
             H (  7)   H (  8)   H (  9)
   H (  8)  1.618842
   H (  9) 10.901672  9.596539
   H ( 10) 10.534845  9.076667  3.293313

 Applying Cartesian multipole field
    Component          Value
    ---------          -----
     (2,0,0)        1.00000E-12
     (0,2,0)        2.00000E-11
     (0,0,2)       -3.00000E-11
 Nucleus-field energy     =     0.0000000028 hartrees
 ENuRep (before)= 73.0004900317
 ENucField = 0.0000000028
 ENuRep (after) = 73.0004900346
 Job number = 2, Threshold = 1.00E-11
Integral type ranges set in mkLRange.C for JobNum: 2  <1-6|1-6>
Symmetry turned off temporarily
Symmetry turned back on
 Job number = 11, Threshold = 1.00E-11
Integral type ranges set in mkLRange.C for JobNum: 11  <1-6|7-7>
 Smallest overlap matrix eigenvalue = 1.47E-01
 Multipole matrices computed through 2nd order
 Extrapolating the Fock matrix using 12 points and a 6th-order polynomial
 Alpha Fock matrix extrapolation
 Skip SCF guess (diagonalize extrapolated Fock matrix instead)
 SCF convergence criterion is 10**(-8)
 A restricted Hartree-Fock SCF calculation will be
 performed using Pulay DIIS extrapolation
 SCF converges when DIIS error is below 1.0E-08
Extrapolated Fock matrix used in lieu of Fock build
Fock build time:  0.00 s (CPU) 0.00 s (wall)
DIIS Errors:  Max 1.80E-01 RMS 2.08E-02

Current DIIS subspace size = 1
REM_GRID_RESTART_DIIS = 0

 ---------------------------------------
  Cycle       Energy         DIIS Error
 ---------------------------------------
    1    -277.0521001381      2.08E-02  00000
Finding J and K together
 Job number = 22, Threshold = 1.00E-11
Integral type ranges set in mkLRange.C for JobNum: 22  <1-6|1-6>
 MakeJK  time:  CPU       0.11 s  wall       0.11 s
Fock build time:  0.11 s (CPU) 0.11 s (wall)
DIIS Errors:  Max 2.11E-01 RMS 1.77E-02

Current DIIS subspace size = 2
REM_GRID_RESTART_DIIS = 0

    2    -152.5348327141      1.77E-02  00000
Finding J and K together
 Job number = 22, Threshold = 1.00E-11
Integral type ranges set in mkLRange.C for JobNum: 22  <1-6|1-6>
 MakeJK  time:  CPU       0.12 s  wall       0.12 s
Fock build time:  0.12 s (CPU) 0.12 s (wall)
DIIS Errors:  Max 1.01E-01 RMS 8.60E-03

Current DIIS subspace size = 3
REM_GRID_RESTART_DIIS = 0

    3    -152.5402141358      8.60E-03  00000
Finding J and K together
 Job number = 22, Threshold = 1.00E-11
Integral type ranges set in mkLRange.C for JobNum: 22  <1-6|1-6>
 MakeJK  time:  CPU       0.12 s  wall       0.12 s
Fock build time:  0.12 s (CPU) 0.12 s (wall)
DIIS Errors:  Max 5.83E-03 RMS 6.43E-04

Current DIIS subspace size = 4
REM_GRID_RESTART_DIIS = 0

    4    -152.5420268257      6.43E-04  00000
Finding J and K together
 Job number = 22, Threshold = 1.00E-11
Integral type ranges set in mkLRange.C for JobNum: 22  <1-6|1-6>
 MakeJK  time:  CPU       0.12 s  wall       0.12 s
Fock build time:  0.12 s (CPU) 0.12 s (wall)
DIIS Errors:  Max 1.23E-03 RMS 1.70E-04

Current DIIS subspace size = 5
REM_GRID_RESTART_DIIS = 0

    5    -152.5420617216      1.70E-04  00000
Finding J and K together
 Job number = 22, Threshold = 1.00E-11
Integral type ranges set in mkLRange.C for JobNum: 22  <1-6|1-6>
 MakeJK  time:  CPU       0.11 s  wall       0.11 s
Fock build time:  0.11 s (CPU) 0.11 s (wall)
DIIS Errors:  Max 2.29E-04 RMS 4.15E-05

Current DIIS subspace size = 6
REM_GRID_RESTART_DIIS = 0

    6    -152.5420681791      4.15E-05  00000
Finding J and K together
 Job number = 22, Threshold = 1.00E-11
Integral type ranges set in mkLRange.C for JobNum: 22  <1-6|1-6>
 MakeJK  time:  CPU       0.12 s  wall       0.12 s
Fock build time:  0.12 s (CPU) 0.12 s (wall)
DIIS Errors:  Max 6.63E-05 RMS 9.83E-06

Current DIIS subspace size = 7
REM_GRID_RESTART_DIIS = 0

    7    -152.5420685855      9.83E-06  00000
Finding J and K together
 Job number = 22, Threshold = 1.00E-11
Integral type ranges set in mkLRange.C for JobNum: 22  <1-6|1-6>
 MakeJK  time:  CPU       0.09 s  wall       0.09 s
Fock build time:  0.09 s (CPU) 0.09 s (wall)
DIIS Errors:  Max 2.94E-05 RMS 4.15E-06

Current DIIS subspace size = 8
REM_GRID_RESTART_DIIS = 0

    8    -152.5420686190      4.15E-06  00000
Finding J and K together
 Job number = 22, Threshold = 1.00E-11
Integral type ranges set in mkLRange.C for JobNum: 22  <1-6|1-6>
 MakeJK  time:  CPU       0.08 s  wall       0.09 s
Fock build time:  0.08 s (CPU) 0.09 s (wall)
DIIS Errors:  Max 1.93E-05 RMS 1.81E-06

Current DIIS subspace size = 9
REM_GRID_RESTART_DIIS = 0

    9    -152.5420686253      1.81E-06  00000
Finding J and K together
 Job number = 22, Threshold = 1.00E-11
Integral type ranges set in mkLRange.C for JobNum: 22  <1-6|1-6>
 MakeJK  time:  CPU       0.09 s  wall       0.09 s
Fock build time:  0.09 s (CPU) 0.09 s (wall)
DIIS Errors:  Max 9.15E-06 RMS 7.34E-07

Current DIIS subspace size = 10
REM_GRID_RESTART_DIIS = 0

   10    -152.5420686284      7.34E-07  00000
Finding J and K together
 Job number = 22, Threshold = 1.00E-11
Integral type ranges set in mkLRange.C for JobNum: 22  <1-6|1-6>
 MakeJK  time:  CPU       0.08 s  wall       0.08 s
Fock build time:  0.08 s (CPU) 0.08 s (wall)
DIIS Errors:  Max 3.48E-06 RMS 3.13E-07

Current DIIS subspace size = 11
REM_GRID_RESTART_DIIS = 0

   11    -152.5420686289      3.13E-07  00000
Finding J and K together
 Job number = 22, Threshold = 1.00E-11
Integral type ranges set in mkLRange.C for JobNum: 22  <1-6|1-6>
 MakeJK  time:  CPU       0.09 s  wall       0.09 s
Fock build time:  0.09 s (CPU) 0.09 s (wall)
DIIS Errors:  Max 1.15E-06 RMS 1.21E-07

Current DIIS subspace size = 12
REM_GRID_RESTART_DIIS = 0

   12    -152.5420686290      1.21E-07  00000
Finding J and K together
 Job number = 22, Threshold = 1.00E-11
Integral type ranges set in mkLRange.C for JobNum: 22  <1-6|1-6>
 MakeJK  time:  CPU       0.08 s  wall       0.09 s
Fock build time:  0.08 s (CPU) 0.09 s (wall)
DIIS Errors:  Max 7.30E-08 RMS 1.65E-08

Current DIIS subspace size = 13
REM_GRID_RESTART_DIIS = 0

   13    -152.5420686290      1.65E-08  00000
Finding J and K together
 Job number = 22, Threshold = 1.00E-11
Integral type ranges set in mkLRange.C for JobNum: 22  <1-6|1-6>
 MakeJK  time:  CPU       0.11 s  wall       0.11 s
Fock build time:  0.11 s (CPU) 0.11 s (wall)
DIIS Errors:  Max 4.54E-08 RMS 3.90E-09

Current DIIS subspace size = 14
REM_GRID_RESTART_DIIS = 0

   14    -152.5420686290      3.90E-09  00000 Convergence criterion met
 ---------------------------------------
 SCF time:  CPU 1.36 s  wall 1.37 s
 SCF   energy in the final basis set = -152.54206863
 Total energy in the final basis set = -152.54206863
drvman_main.C: 73: calling DrvMan  Calculating analytic gradient of the SCF energy
drvman.C : 218: Calculating analytic gradient of the SCF energy
drvman.C: 244: calling SCF_Grad for normal SCF gradient
 Job number = 111, Threshold = 1.00E-11
Integral type ranges set in mkLRange.C for JobNum: 11  <1-6|7-7>
Finding J and K together
 ML is being used
 Job number = 122, Threshold = 1.00E-11
Integral type ranges set in mkLRange.C for JobNum: 22  <1-6|1-6>
 MakeJK  time:  CPU       0.19 s  wall       0.19 s
 Gradient of SCF Energy
            1           2           3           4           5           6
    1  -0.0807119   0.1888553  -0.0198708   0.0178230  -0.0978955  -0.0152803
    2   0.0853889   0.0520876  -0.0682971   0.0072214  -0.1274093  -0.0686123
    3  -0.2453037   0.2388939   0.0625481   0.0185597  -0.0271575   0.0809235
            7           8           9          10
    1   0.0025857   0.0127075  -0.0854122   0.0771993
    2   0.0279293   0.0406871  -0.0398686   0.0908731
    3  -0.0319023  -0.0490312  -0.0802081   0.0326776
 Max gradient component =       2.453E-01
 RMS gradient           =       9.198E-02
drvman.C: 248: out of SCF_Grad for normal SCF gradient
 Gradient time:  CPU 0.20 s  wall 0.20 s
 ------------------------------------------------------------------------------
                     drvman        : Timing summary (seconds)
 ------------------------------------------------------------------------------
     job step          cpu (% of tot)      sys (% of tot)     wall (% of tot)
 ------------------------------------------------------------------------------
 ------------------------------------------------------------------------------
   Grand Totals     0.2040E+00          0.1000E-05          0.2038E+00
 ------------------------------------------------------------------------------
drvman_main.C: 77: out of DrvMan  Time for this dynamics step: 1.6 s (CPU) 1.6 s (wall)

=============== TIME STEPS COMPLETED ==================

Step-to-Step energy fluctuations, |E(n) - E(n-1)|
Mean: -5.404e-07   Max: 2.580e-03   RMS: 5.637e-04
Overall energy fluctuations, |E(n) - E(0)|
Mean: -3.029e-04   Max: 2.254e-03   RMS: 6.799e-04   RMS(dE)/RMS(dV): 1.192e-02
Kinetic energy fluctuations, |T(n) - V(0)|
Mean: 1.847e-01   Max: 3.180e-01   RMS: 5.667e-02
Potential energy fluctuations, |V(n) - V(0)|
Mean: -1.850e-01   Max: 3.194e-01   RMS: 5.702e-02


 JobOver = TRUE
Archival summary:
1\1\qciep03\JobtypUnspecified\HF\STO-3G\46\jcartus\MonJun1812:23:342018MonJun1812:23:342018\0\\#,JobtypUnspecified,HF,STO-3G,\\0,1\C\C,1,1.22716\H,2,1.10928,1,130.859\H,2,1.24005,1,118.168,3,172.742,0\H,1,1.29215,2,138.845,3,-172.746,0\C,1,1.49567,2,119.711,3,-30.9533,0\H,6,1.44591,1,102.674,2,36.971,0\H,6,8.57906,1,146.8,2,-111.111,0\C,8,1.22838,6,102.081,1,25.3182,0\H,9,1.17617,8,84.6059,6,179.561,0\\HF=-152.542069\\@

 Total job time:  867.57s(wall), 829.32s(cpu) 
 Mon Jun 18 12:23:34 2018

        *************************************************************
        *                                                           *
        *  Thank you very much for using Q-Chem.  Have a nice day.  *
        *                                                           *
        *************************************************************


*** MISSION COMPLETED -- STARFLEET OUT ***

0 sent ACK to 0 
now end server 0 ... 
