Process 0 of 1 is on qciep03 - thread support 0
initial socket setup ...start
initial socket setup ...done 
now start server 0 ... 
qciep03.tugraz.at 127.0.1
Q-Chem Developer Version! Running on 127.0.1.*
                  Welcome to Q-Chem
     A Quantum Leap Into The Future Of Chemistry


 Q-Chem 5.0, Q-Chem, Inc., Pleasanton, CA (2017)

 Yihan Shao,  Zhengting Gan,  E. Epifanovsky,  A. T. B. Gilbert,  M. Wormit,  
 J. Kussmann,  A. W. Lange,  A. Behn,  Jia Deng,  Xintian Feng,  D. Ghosh,  
 M. Goldey,  P. R. Horn,  L. D. Jacobson,  I. Kaliman,  T. Kus,  A. Landau,  
 Jie Liu,  E. I. Proynov,  R. M. Richard,  R. P. Steele,  E. J. Sundstrom,  
 H. L. Woodcock III,  P. M. Zimmerman,  D. Zuev,  B. Albrecht,  E. Alguire,  
 S. A. Baeppler,  D. Barton,  Z. Benda,  Y. A. Bernard,  E. J. Berquist,  
 K. B. Bravaya,  H. Burton,  D. Casanova,  Chun-Min Chang,  Yunqing Chen,  
 A. Chien,  K. D. Closser,  M. P. Coons,  S. Dasgupta,  A. L. Dempwolff,  
 M. Diedenhofen,  Hainam Do,  R. G. Edgar,  Po-Tung Fang,  S. Fatehi,  
 Qingguo Feng,  J. Fosso-Tande,  Qinghui Ge,  A. Ghysels,  G. Gidofalvi,  
 J. Gomes,  J. Gonthier,  A. Gunina,  M. W. D. Hanson-Heine,  
 P. H. P. Harbach,  A. W. Hauser,  J. E. Herr,  E. G. Hohenstein,  
 Z. C. Holden,  Kerwin Hui,  T.-C. Jagau,  Hyunjun Ji,  B. Kaduk,  
 K. Khistyaev,  Jaehoon Kim,  P. Klunzinger,  K. Koh,  D. Kosenkov,  
 L. Koulias,  T. Kowalczyk,  C. M. Krauter,  A. Kunitsa,  Ka Un Lao,  
 A. Laurent,  K. V. Lawler,  Joonho Lee,  D. Lefrancois,  S. Lehtola,  
 D. S. Levine,  Yi-Pei Li,  You-Sheng Lin,  Fenglai Liu,  E. Livshits,  
 A. Luenser,  P. Manohar,  E. Mansoor,  S. F. Manzer,  Shan-Ping Mao,  
 Yuezhi Mao,  N. Mardirossian,  A. V. Marenich,  T. Markovich,  
 L. A. Martinez-Martinez,  S. A. Maurer,  N. J. Mayhall,  S. C. McKenzie,  
 J.-M. Mewes,  A. F. Morrison,  J. W. Mullinax,  K. Nanda,  
 T. S. Nguyen-Beck,  R. Olivares-Amaya,  J. A. Parkhill,  T. M. Perrine,  
 F. Plasser,  S. Prager,  A. Prociuk,  E. Ramos,  D. R. Rehn,  F. Rob,  
 M. Schneider,  N. Sergueev,  S. M. Sharada,  S. Sharma,  D. W. Small,  
 T. Stauch,  T. Stein,  Yu-Chuan Su,  A. J. W. Thom,  A. Tkatchenko,  
 T. Tsuchimochi,  L. Vogt,  O. Vydrov,  M. A. Watson,  J. Wenzel,  
 M. de Wergifosse,  T. A. Wesolowski,  A. White,  J. Witte,  A. Yamada,  
 Jun Yang,  K. Yao,  S. Yeganeh,  S. R. Yost,  Zhi-Qiang You,  A. Zech,  
 Igor Ying Zhang,  Xing Zhang,  Yan Zhao,  Ying Zhu,  B. R. Brooks,  
 G. K. L. Chan,  C. J. Cramer,  M. S. Gordon,  W. J. Hehre,  A. Klamt,  
 M. W. Schmidt,  C. D. Sherrill,  D. G. Truhlar,  A. Aspuru-Guzik,  R. Baer,  
 A. T. Bell,  N. A. Besley,  Jeng-Da Chai,  R. A. DiStasio Jr.,  A. Dreuw,  
 B. D. Dunietz,  T. R. Furlani,  Chao-Ping Hsu,  Yousung Jung,  Jing Kong,  
 D. S. Lambrecht,  WanZhen Liang,  C. Ochsenfeld,  V. A. Rassolov,  
 L. V. Slipchenko,  J. E. Subotnik,  T. Van Voorhis,  J. M. Herbert,  
 A. I. Krylov,  P. M. W. Gill,  M. Head-Gordon

 Contributors to earlier versions of Q-Chem not listed above: 
 R. D. Adamson,  B. Austin,  J. Baker,  G. J. O. Beran,  K. Brandhorst,  
 S. T. Brown,  E. F. C. Byrd,  A. K. Chakraborty,  C.-L. Cheng,  
 Siu Hung Chien,  D. M. Chipman,  D. L. Crittenden,  H. Dachsel,  
 R. J. Doerksen,  A. D. Dutoi,  L. Fusti-Molnar,  W. A. Goddard III,  
 A. Golubeva-Zadorozhnaya,  S. R. Gwaltney,  G. Hawkins,  A. Heyden,  
 S. Hirata,  G. Kedziora,  F. J. Keil,  C. Kelley,  Jihan Kim,  R. A. King,  
 R. Z. Khaliullin,  P. P. Korambath,  W. Kurlancheek,  A. M. Lee,  M. S. Lee,  
 S. V. Levchenko,  Ching Yeh Lin,  D. Liotard,  R. C. Lochan,  I. Lotan,  
 P. E. Maslen,  N. Nair,  D. P. O'Neill,  D. Neuhauser,  E. Neuscamman,  
 C. M. Oana,  R. Olson,  B. Peters,  R. Peverati,  P. A. Pieniazek,  
 Y. M. Rhee,  J. Ritchie,  M. A. Rohrdanz,  E. Rosta,  N. J. Russ,  
 H. F. Schaefer III,  N. E. Schultz,  N. Shenvi,  A. C. Simmonett,  A. Sodt,  
 D. Stuck,  K. S. Thanthiriwatte,  V. Vanovschi,  Tao Wang,  A. Warshel,  
 C. F. Williams,  Q. Wu,  X. Xu,  W. Zhang

 Please cite Q-Chem as follows:
 Y. Shao et al., Mol. Phys. 113, 184-215 (2015)
 DOI: 10.1080/00268976.2014.952696

 Q-Chem 5.0.2 for Intel X86 EM64T Linux

 Parts of Q-Chem use Armadillo 5.200.1 (Boston Tea Smuggler).
 http://arma.sourceforge.net/

 Q-Chem begins on Mon Jun 18 12:05:21 2018  


Host: 0

     Scratch files written to /home/jcartus/scratch/Butadien_7.mol.dir//
 Using version located at /usr/local/qchem/bin/qchem

 Parallel job on  1  processors
Symmetry disabled for AIMD jobs.

Total Memory Limit in MB = 2000
Mega-Array Size in MB = 192

Checking the input file for inconsistencies... 	...done.
Finally everything over in PARseQInput

--------------------------------------------------------------
User input:
--------------------------------------------------------------
$rem
AIMD_STEPS                    400
FOCK_EXTRAP_POINTS            12
MAX_SCF_CYCLES                100
BASIS                         sto-3g
AIMD_INIT_VELOC               thermal
FOCK_EXTRAP_ORDER             6
AIMD_TEMP                     400
AIMD_METHOD                   bomd
TIME_STEP                     20
METHOD                        hf
JOBTYPE                       aimd
$end

$molecule
0 1
C    4.59782    0.26917    0.33148
C    3.48375    0.83300    -0.14859
H    5.54890    0.78845    0.26750
H    4.59614    -0.71199    0.79536
C    2.49144    0.07065    0.01971
C    1.32680    0.90601    -0.56562
H    0.13017    -0.19170    -0.63705
H    0.55550    1.86572    -0.94537
H    3.54348    1.81929    -0.60415
H    1.81521    -0.82693    0.30097
$end


--------------------------------------------------------------
 ----------------------------------------------------------------
             Standard Nuclear Orientation (Angstroms)
    I     Atom           X                Y                Z
 ----------------------------------------------------------------
    1      C       4.5978200000     0.2691700000     0.3314800000
    2      C       3.4837500000     0.8330000000    -0.1485900000
    3      H       5.5489000000     0.7884500000     0.2675000000
    4      H       4.5961400000    -0.7119900000     0.7953600000
    5      C       2.4914400000     0.0706500000     0.0197100000
    6      C       1.3268000000     0.9060100000    -0.5656200000
    7      H       0.1301700000    -0.1917000000    -0.6370500000
    8      H       0.5555000000     1.8657200000    -0.9453700000
    9      H       3.5434800000     1.8192900000    -0.6041500000
   10      H       1.8152100000    -0.8269300000     0.3009700000
 ----------------------------------------------------------------
 Nuclear Repulsion Energy =   104.1036625973 hartrees
 There are       15 alpha and       15 beta electrons
 Requested basis set is STO-3G
 There are 14 shells and 26 basis functions

 Total QAlloc Memory Limit   2000 MB
 Mega-Array Size       188 MB
 MEM_STATIC part       192 MB

finished with qalloc call

                       Distance Matrix (Angstroms)
             C (  1)   C (  2)   H (  3)   H (  4)   C (  5)   C (  6)
   C (  2)  1.337731
   H (  3)  1.085495  2.107121
   H (  4)  1.085294  2.124958  1.854106
   C (  5)  2.138562  1.262609  3.150349  2.375694
   C (  6)  3.451076  2.198108  4.305118  3.893427  1.548168
   H (  7)  4.594600  3.540495  5.580461  4.718833  2.464905  1.625421
   H (  8)  4.529864  3.205623  5.250296  5.099167  2.810964  1.288471
   H (  9)  2.095211  1.088058  2.417460  3.078003  2.133947  2.397756
   H ( 10)  2.990867  2.396142  4.068294  2.826872  1.158466  1.998150
             H (  7)   H (  8)   H (  9)
   H (  8)  2.123427
   H (  9)  3.961799  3.007759
   H ( 10)  2.030458  3.223445  3.287650

 Job number = 2, Threshold = 1.00E-11
Integral type ranges set in mkLRange.C for JobNum: 2  <1-6|1-6>
Symmetry turned off temporarily
 Using the largest function pair in Schwarz integrals
Total number of integrals generated =            3252
Symmetry turned back on
 A cutoff of  1.0D-11 yielded    102 shell pairs
 There are       372 function pairs
 Job number = 11, Threshold = 1.00E-11
Integral type ranges set in mkLRange.C for JobNum: 11  <1-6|7-7>
Total number of integrals generated =            3720
 Smallest overlap matrix eigenvalue = 1.45E-01
 Multipole matrices computed through 2nd order

 Scale SEOQF with 1.000000e-02/1.000000e-01/1.000000e+00

 Standard Electronic Orientation quadrupole field applied
 Nucleus-field energy     =    -0.0000000031 hartrees
 ENuRep (before)= 104.1036625973
 ENucField = -0.0000000031
 ENuRep (after) = 104.1036625942
 Guess from superposition of atomic densities
 Warning:  Energy on first SCF cycle will be non-variational
 SAD guess density has 30.000000 electrons

 ==================================================
    GEN_SCFMAN: A general SCF calculation manager  
                                                   
    Authors:                                       
        -- Eric Jon Sundstrom 2008-2014            
        -- Paul Horn 2010-2015                     
        -- Yuezhi Mao 2012-                        
        -- Dmitri Zuev 2014                        
        -- Alec White 2015-                        
        -- David Stuck 2015                        
        -- Shaama M.S. 2015                        
        -- Shane Yost 2015-                         
        -- Joonho Lee 2016-                        
        -- David Small 2016-                       
        -- Daniel Levine 2016-                     
        -- Susi Lehtola 2017-                      
        -- Hugh Burton 2017-                       
 ==================================================
 Hartree-Fock
Finding J and K together
 Job number = 22, Threshold = 1.00E-11
Integral type ranges set in mkLRange.C for JobNum: 22  <1-6|1-6>
 MakeJK  time:  CPU       0.11 s  wall       0.11 s
 A restricted SCF calculation will be
 performed using DIIS
 SCF converges when DIIS error is below 1.0e-08
 ---------------------------------------
  Cycle       Energy         DIIS error
 ---------------------------------------
Finding J and K together
 Job number = 22, Threshold = 1.00E-11
Integral type ranges set in mkLRange.C for JobNum: 22  <1-6|1-6>
 MakeJK  time:  CPU       0.14 s  wall       0.14 s
    1    -152.2737366478      2.12e-01  
Finding J and K together
 Job number = 22, Threshold = 1.00E-11
Integral type ranges set in mkLRange.C for JobNum: 22  <1-6|1-6>
 MakeJK  time:  CPU       0.13 s  wall       0.13 s
    2    -152.5775930206      1.71e-02  
Finding J and K together
 Job number = 22, Threshold = 1.00E-11
Integral type ranges set in mkLRange.C for JobNum: 22  <1-6|1-6>
 MakeJK  time:  CPU       0.13 s  wall       0.12 s
    3    -152.6214355574      8.29e-03  
Finding J and K together
 Job number = 22, Threshold = 1.00E-11
Integral type ranges set in mkLRange.C for JobNum: 22  <1-6|1-6>
 MakeJK  time:  CPU       0.12 s  wall       0.12 s
    4    -152.6285548716      4.10e-03  
Finding J and K together
 Job number = 22, Threshold = 1.00E-11
Integral type ranges set in mkLRange.C for JobNum: 22  <1-6|1-6>
 MakeJK  time:  CPU       0.13 s  wall       0.13 s
    5    -152.6305948638      1.28e-03  
Finding J and K together
 Job number = 22, Threshold = 1.00E-11
Integral type ranges set in mkLRange.C for JobNum: 22  <1-6|1-6>
 MakeJK  time:  CPU       0.13 s  wall       0.13 s
    6    -152.6308130809      2.45e-04  
Finding J and K together
 Job number = 22, Threshold = 1.00E-11
Integral type ranges set in mkLRange.C for JobNum: 22  <1-6|1-6>
 MakeJK  time:  CPU       0.14 s  wall       0.14 s
    7    -152.6308255391      7.07e-05  
Finding J and K together
 Job number = 22, Threshold = 1.00E-11
Integral type ranges set in mkLRange.C for JobNum: 22  <1-6|1-6>
 MakeJK  time:  CPU       0.12 s  wall       0.13 s
    8    -152.6308275047      2.14e-05  
Finding J and K together
 Job number = 22, Threshold = 1.00E-11
Integral type ranges set in mkLRange.C for JobNum: 22  <1-6|1-6>
 MakeJK  time:  CPU       0.13 s  wall       0.13 s
    9    -152.6308276556      1.02e-05  
Finding J and K together
 Job number = 22, Threshold = 1.00E-11
Integral type ranges set in mkLRange.C for JobNum: 22  <1-6|1-6>
 MakeJK  time:  CPU       0.15 s  wall       0.15 s
   10    -152.6308277037      4.17e-06  
Finding J and K together
 Job number = 22, Threshold = 1.00E-11
Integral type ranges set in mkLRange.C for JobNum: 22  <1-6|1-6>
 MakeJK  time:  CPU       0.14 s  wall       0.14 s
   11    -152.6308277113      1.03e-06  
Finding J and K together
 Job number = 22, Threshold = 1.00E-11
Integral type ranges set in mkLRange.C for JobNum: 22  <1-6|1-6>
 MakeJK  time:  CPU       0.13 s  wall       0.14 s
   12    -152.6308277116      2.54e-07  
Finding J and K together
 Job number = 22, Threshold = 1.00E-11
Integral type ranges set in mkLRange.C for JobNum: 22  <1-6|1-6>
 MakeJK  time:  CPU       0.14 s  wall       0.14 s
   13    -152.6308277116      5.40e-08  
Finding J and K together
 Job number = 22, Threshold = 1.00E-11
Integral type ranges set in mkLRange.C for JobNum: 22  <1-6|1-6>
 MakeJK  time:  CPU       0.18 s  wall       0.18 s
   14    -152.6308277116      1.18e-08  
   15    -152.6308277116      3.90e-09  Convergence criterion met
 ---------------------------------------
 SCF time:   CPU 2.04s  wall 3.00s 
 Total energy in the final basis set =     -152.6308277116
Wall  1 = 3
Clock 1 = 2.0440490246
 ==================================================
                  Done GEN_SCFMAN                  
 ==================================================

Symmetry turned off temporarily

 --------------------------------------------------------------

                    Orbital Energies (a.u.)
 --------------------------------------------------------------

 Alpha MOs
 -- Occupied --
-11.046 -11.042 -11.023 -10.988  -1.075  -0.891  -0.735  -0.696
 -0.606  -0.560  -0.482  -0.431  -0.406  -0.295  -0.186
 -- Virtual --
  0.199   0.358   0.373   0.418   0.507   0.663   0.711   0.824
  0.854   1.003   1.217
 --------------------------------------------------------------

          Ground-State Mulliken Net Atomic Charges

     Atom                 Charge (a.u.)
  ----------------------------------------
      1 C                    -0.128024
      2 C                    -0.074463
      3 H                     0.041171
      4 H                     0.049753
      5 C                    -0.055521
      6 C                    -0.019042
      7 H                    -0.130619
      8 H                     0.090257
      9 H                     0.086831
     10 H                     0.139657
  ----------------------------------------
  Sum of atomic charges =    -0.000000

 -----------------------------------------------------------------
                    Cartesian Multipole Moments
 -----------------------------------------------------------------
    Charge (ESU x 10^10)
                -0.0000
    Dipole Moment (Debye)
         X      -0.3325      Y       0.6716      Z      -0.0579
       Tot       0.7517
    Quadrupole Moments (Debye-Ang)
        XX     -27.4317     XY       0.3773     YY     -20.8040
        XZ      -0.3385     YZ      -2.0507     ZZ     -24.5895
    Octopole Moments (Debye-Ang^2)
       XXX    -228.1968    XXY     -10.4242    XYY     -64.9009
       YYY     -31.3560    XXZ       1.0137    XYZ      -3.9563
       YYZ      -0.1992    XZZ     -72.0623    YZZ     -11.5091
       ZZZ       7.2297
    Hexadecapole Moments (Debye-Ang^3)
      XXXX   -1615.3603   XXXY     -85.4546   XXYY    -256.0920
      XYYY     -88.9364   YYYY     -91.9954   XXXZ     -16.8279
      XXYZ      -7.9351   XYYZ      -7.3831   YYYZ       8.7795
      XXZZ    -270.9923   XYZZ     -32.9941   YYZZ     -22.4976
      XZZZ     -12.2513   YZZZ      14.0980   ZZZZ     -45.2786
 -----------------------------------------------------------------
drvman_main.C: 73: calling DrvMan  Calculating analytic gradient of the SCF energy
drvman.C : 218: Calculating analytic gradient of the SCF energy
drvman.C: 244: calling SCF_Grad for normal SCF gradient
 Job number = 111, Threshold = 1.00E-11
Integral type ranges set in mkLRange.C for JobNum: 11  <1-6|7-7>
Finding J and K together
 ML is being used
 Job number = 122, Threshold = 1.00E-11
Integral type ranges set in mkLRange.C for JobNum: 22  <1-6|1-6>
Total number of integrals generated =           70465
 MakeJK  time:  CPU       0.48 s  wall       0.49 s
 Gradient of SCF Energy
            1           2           3           4           5           6
    1  -0.0443090  -0.2994059  -0.0009426   0.0004675   0.4716769   0.1488174
    2  -0.0361022  -0.0611125   0.0078480  -0.0056924  -0.0115536   0.1642898
    3   0.0091278  -0.0345053  -0.0037392   0.0036467   0.0845332  -0.0171156
            7           8           9          10
    1  -0.1010865  -0.1002109   0.0142882  -0.0892952
    2  -0.1028304   0.0589146   0.0092259  -0.0229872
    3  -0.0086055  -0.0307356  -0.0023595  -0.0002469
 Max gradient component =       4.717E-01
 RMS gradient           =       1.185E-01
drvman.C: 248: out of SCF_Grad for normal SCF gradient
 Gradient time:  CPU 0.50 s  wall 0.51 s
 ------------------------------------------------------------------------------
                     drvman        : Timing summary (seconds)
 ------------------------------------------------------------------------------
     job step          cpu (% of tot)      sys (% of tot)     wall (% of tot)
 ------------------------------------------------------------------------------
 ------------------------------------------------------------------------------
   Grand Totals     0.5040E+00          0.0000E+00          0.5082E+00
 ------------------------------------------------------------------------------
drvman_main.C: 77: out of DrvMan =======================================================
            AB INITIO MOLECULAR DYNAMICS
=======================================================
Created directory /home/jcartus/scratch/Butadien_7.mol.dir/AIMD
AIMD will take 400 BOMD steps Velocity Verlet integration
Time step = 20.00000 a.u. ( = 0.48378 fs)
Total simulation time requested = 193.511 fs
Integral threshold = 10**(-11)
SCF convergence threshold = 10**(-8)
Generating viewable xyz trajectory,
 file (in Angstroms) at AIMD/View.xyz
Choosing nuclear velocities from Maxwell-Boltzmann
Velocities sampled from Maxwell-Boltzmann at T = 400.0 K
sqrt(kT/m) and (vx,vy,vz) for each atom:
  1   2.4064e-04   2.06e-04   2.85e-04  -1.42e-04 
  2   2.4064e-04   1.70e-05  -5.20e-04  -6.57e-04 
  3   8.3036e-04  -1.04e-03   7.94e-04   1.02e-03 
  4   8.3036e-04  -8.52e-04   6.40e-04  -4.26e-04 
  5   2.4064e-04  -2.45e-04   4.82e-05  -2.63e-04 
  6   2.4064e-04   1.66e-04   2.38e-04   1.86e-04 
  7   8.3036e-04  -4.49e-05   8.66e-04  -1.28e-03 
  8   8.3036e-04  -9.75e-04   4.15e-05   1.52e-03 
  9   8.3036e-04   2.01e-03  -1.40e-03   6.44e-04 
 10   8.3036e-04   3.65e-04   8.15e-04  -2.85e-04 
T(nuclear) = 0.02762304 a.u.
v(c.o.m.) = (  2.2175e-05,   4.4145e-05,  -1.7185e-04)
T(c.o.m.) = 1.57501e-03 a.u.
kT/2 = 0.000633 a.u.
Tx   = 0.007805 a.u.
Ty   = 0.008546 a.u.
Tz   = 0.011272 a.u.
Mean velocities (a.u.):  -3.8644e-05   1.8086e-04   3.2629e-05
Removing c.o.m. velocity
T(nuclear) = 0.03282486 a.u.
v(c.o.m.) = ( -5.6344e-21,  -4.5075e-21,   6.0852e-20)
T(c.o.m.) = 1.84974e-34 a.u.
kT   = 0.001267 a.u. = 0.79 kcal/mol
Tx   = 0.007971 a.u. = 5.00 kcal/mol
Ty   = 0.008085 a.u. = 5.07 kcal/mol
Tz   = 0.016768 a.u. = 10.52 kcal/mol
Initial velocities in m/s
  1      4.2798e+02      5.8090e+02     -1.4075e+02 
  2      1.5331e+01     -1.1808e+03     -1.2669e+03 
  3     -2.5326e+03      1.2199e+03      4.2575e+03 
  4     -2.1240e+03      8.8202e+02      1.0843e+03 
  5     -5.5681e+02      6.1865e+01     -4.0520e+02 
  6      3.4215e+02      4.7617e+02      5.7623e+02 
  7     -3.5830e+02      1.3769e+03     -7.7655e+02 
  8     -2.3927e+03     -4.2711e+02      5.3420e+03 
  9      4.1466e+03     -3.5799e+03      3.4243e+03 
 10      5.3869e+02      1.2654e+03      1.3930e+03 
----------------------------------------------------------------------------
       Nuclear coordinates (Angst) and velocities (a.u.)
----------------------------------------------------------------------------
             x        y        z            v_x         v_y        v_z
----------------------------------------------------------------------------
1      C    4.5978   0.2692   0.3315     1.9563e-04   2.6553e-04  -6.4337e-05
2      C    3.4838   0.8330  -0.1486     7.0077e-06  -5.3977e-04  -5.7912e-04
3      H    5.5489   0.7884   0.2675    -1.1577e-03   5.5760e-04   1.9461e-03
4      H    4.5961  -0.7120   0.7954    -9.7091e-04   4.0318e-04   4.9564e-04
5      C    2.4914   0.0707   0.0197    -2.5452e-04   2.8279e-05  -1.8522e-04
6      C    1.3268   0.9060  -0.5656     1.5640e-04   2.1766e-04   2.6339e-04
7      H    0.1302  -0.1917  -0.6371    -1.6378e-04   6.2939e-04  -3.5496e-04
8      H    0.5555   1.8657  -0.9454    -1.0937e-03  -1.9523e-04   2.4418e-03
9      H    3.5435   1.8193  -0.6041     1.8954e-03  -1.6364e-03   1.5652e-03
10     H    1.8152  -0.8269   0.3010     2.4624e-04   5.7841e-04   6.3676e-04
----------------------------------------------------------------------------
Write nuclear velocities every 1 time steps

TIME STEP #1 (t = 0.000 a.u. = 0.00000 fs)
--------------------------------------
 Instantaneous Temperature = 691.0 K
 ----------------------------------------------------------------
             Standard Nuclear Orientation (Angstroms)
    I     Atom           X                Y                Z
 ----------------------------------------------------------------
    1      C       4.6001048292     0.2721549377     0.3307549200
    2      C       3.4852727722     0.8275830105    -0.1545521983
    3      H       5.5367020889     0.7938992723     0.2883124485
    4      H       4.5858374198    -0.7073950398     0.8003955913
    5      C       2.4864641656     0.0710051896     0.0173407499
    6      C       1.3277352134     0.9075187110    -0.5627495425
    7      H       0.1342600485    -0.1791149894    -0.6403110296
    8      H       0.5496976265     1.8602597675    -0.9177560942
    9      H       3.5627171388     1.8014399792    -0.5874482211
   10      H       1.8229601879    -0.8194841434     0.3077234289
 ----------------------------------------------------------------
 Nuclear Repulsion Energy =   104.3205387804 hartrees
 There are       15 alpha and       15 beta electrons

                       Distance Matrix (Angstroms)
             C (  1)   C (  2)   H (  3)   H (  4)   C (  5)   C (  6)
   C (  2)  1.336740
   H (  3)  1.072955  2.098958
   H (  4)  1.086409  2.116442  1.849394
   C (  5)  2.146198  1.264743  3.146419  2.372014
   C (  6)  3.451151  2.197267  4.295651  3.883470  1.542372
   H (  7)  4.592427  3.532519  5.567358  4.708636  2.455184  1.615912
   H (  8)  4.526219  3.204138  5.240414  5.082846  2.797660  1.280269
   H (  9)  2.063488  1.068548  2.383005  3.044198  2.125675  2.407249
   H ( 10)  2.984081  2.385333  4.049106  2.808697  1.147837  1.996374
             H (  7)   H (  8)   H (  9)
   H (  8)  2.099670
   H (  9)  3.959761  3.031641
   H ( 10)  2.039743  3.209988  3.270677

 Applying Cartesian multipole field
    Component          Value
    ---------          -----
     (2,0,0)        1.00000E-12
     (0,2,0)        2.00000E-11
     (0,0,2)       -3.00000E-10
 Nucleus-field energy     =    -0.0000000031 hartrees
 ENuRep (before)= 104.3205387804
 ENucField = -0.0000000031
 ENuRep (after) = 104.3205387773
 Job number = 2, Threshold = 1.00E-11
Integral type ranges set in mkLRange.C for JobNum: 2  <1-6|1-6>
Symmetry turned off temporarily
Symmetry turned back on
 Job number = 11, Threshold = 1.00E-11
Integral type ranges set in mkLRange.C for JobNum: 11  <1-6|7-7>
 Smallest overlap matrix eigenvalue = 1.45E-01
 Multipole matrices computed through 2nd order
 Guess from superposition of atomic densities
 Warning:  Energy on first SCF cycle will be non-variational
 SAD guess density has 30.000000 electrons
 SCF convergence criterion is 10**(-8)
 A restricted Hartree-Fock SCF calculation will be
 performed using Pulay DIIS extrapolation
 SCF converges when DIIS error is below 1.0E-08
Finding J and K together
 Job number = 22, Threshold = 1.00E-11
Integral type ranges set in mkLRange.C for JobNum: 22  <1-6|1-6>
 MakeJK  time:  CPU       0.15 s  wall       0.15 s
Fock build time:  0.15 s (CPU) 0.15 s (wall)
DIIS Errors:  Max 1.29E+00 RMS 2.13E-01

Current DIIS subspace size = 1
REM_GRID_RESTART_DIIS = 0

 ---------------------------------------
  Cycle       Energy         DIIS Error
 ---------------------------------------
    1    -152.3172367363      2.13E-01  00000
Finding J and K together
 Job number = 22, Threshold = 1.00E-11
Integral type ranges set in mkLRange.C for JobNum: 22  <1-6|1-6>
 MakeJK  time:  CPU       0.20 s  wall       0.20 s
Fock build time:  0.20 s (CPU) 0.20 s (wall)
DIIS Errors:  Max 9.54E-02 RMS 1.70E-02

Current DIIS subspace size = 2
REM_GRID_RESTART_DIIS = 0

    2    -152.5877909867      1.70E-02  00000
Finding J and K together
 Job number = 22, Threshold = 1.00E-11
Integral type ranges set in mkLRange.C for JobNum: 22  <1-6|1-6>
 MakeJK  time:  CPU       0.19 s  wall       0.19 s
Fock build time:  0.19 s (CPU) 0.19 s (wall)
DIIS Errors:  Max 4.41E-02 RMS 8.21E-03

Current DIIS subspace size = 3
REM_GRID_RESTART_DIIS = 0

    3    -152.6310702342      8.21E-03  00000
Finding J and K together
 Job number = 22, Threshold = 1.00E-11
Integral type ranges set in mkLRange.C for JobNum: 22  <1-6|1-6>
 MakeJK  time:  CPU       0.19 s  wall       0.19 s
Fock build time:  0.19 s (CPU) 0.19 s (wall)
DIIS Errors:  Max 2.32E-02 RMS 4.03E-03

Current DIIS subspace size = 4
REM_GRID_RESTART_DIIS = 0

    4    -152.6380706343      4.03E-03  00000
Finding J and K together
 Job number = 22, Threshold = 1.00E-11
Integral type ranges set in mkLRange.C for JobNum: 22  <1-6|1-6>
 MakeJK  time:  CPU       0.17 s  wall       0.18 s
Fock build time:  0.18 s (CPU) 0.18 s (wall)
DIIS Errors:  Max 8.90E-03 RMS 1.23E-03

Current DIIS subspace size = 5
REM_GRID_RESTART_DIIS = 0

    5    -152.6400448051      1.23E-03  00000
Finding J and K together
 Job number = 22, Threshold = 1.00E-11
Integral type ranges set in mkLRange.C for JobNum: 22  <1-6|1-6>
 MakeJK  time:  CPU       0.17 s  wall       0.16 s
Fock build time:  0.17 s (CPU) 0.16 s (wall)
DIIS Errors:  Max 1.38E-03 RMS 2.39E-04

Current DIIS subspace size = 6
REM_GRID_RESTART_DIIS = 0

    6    -152.6402474768      2.39E-04  00000
Finding J and K together
 Job number = 22, Threshold = 1.00E-11
Integral type ranges set in mkLRange.C for JobNum: 22  <1-6|1-6>
 MakeJK  time:  CPU       0.14 s  wall       0.14 s
Fock build time:  0.14 s (CPU) 0.14 s (wall)
DIIS Errors:  Max 5.30E-04 RMS 6.85E-05

Current DIIS subspace size = 7
REM_GRID_RESTART_DIIS = 0

    7    -152.6402595302      6.85E-05  00000
Finding J and K together
 Job number = 22, Threshold = 1.00E-11
Integral type ranges set in mkLRange.C for JobNum: 22  <1-6|1-6>
 MakeJK  time:  CPU       0.16 s  wall       0.16 s
Fock build time:  0.16 s (CPU) 0.16 s (wall)
DIIS Errors:  Max 1.26E-04 RMS 1.97E-05

Current DIIS subspace size = 8
REM_GRID_RESTART_DIIS = 0

    8    -152.6402613999      1.97E-05  00000
Finding J and K together
 Job number = 22, Threshold = 1.00E-11
Integral type ranges set in mkLRange.C for JobNum: 22  <1-6|1-6>
 MakeJK  time:  CPU       0.19 s  wall       0.19 s
Fock build time:  0.19 s (CPU) 0.19 s (wall)
DIIS Errors:  Max 5.93E-05 RMS 9.14E-06

Current DIIS subspace size = 9
REM_GRID_RESTART_DIIS = 0

    9    -152.6402615337      9.14E-06  00000
Finding J and K together
 Job number = 22, Threshold = 1.00E-11
Integral type ranges set in mkLRange.C for JobNum: 22  <1-6|1-6>
 MakeJK  time:  CPU       0.19 s  wall       0.19 s
Fock build time:  0.19 s (CPU) 0.20 s (wall)
DIIS Errors:  Max 2.22E-05 RMS 3.70E-06

Current DIIS subspace size = 10
REM_GRID_RESTART_DIIS = 0

   10    -152.6402615745      3.70E-06  00000
Finding J and K together
 Job number = 22, Threshold = 1.00E-11
Integral type ranges set in mkLRange.C for JobNum: 22  <1-6|1-6>
 MakeJK  time:  CPU       0.15 s  wall       0.15 s
Fock build time:  0.15 s (CPU) 0.15 s (wall)
DIIS Errors:  Max 4.81E-06 RMS 9.00E-07

Current DIIS subspace size = 11
REM_GRID_RESTART_DIIS = 0

   11    -152.6402615809      9.00E-07  00000
Finding J and K together
 Job number = 22, Threshold = 1.00E-11
Integral type ranges set in mkLRange.C for JobNum: 22  <1-6|1-6>
 MakeJK  time:  CPU       0.13 s  wall       0.13 s
Fock build time:  0.13 s (CPU) 0.13 s (wall)
DIIS Errors:  Max 1.27E-06 RMS 2.31E-07

Current DIIS subspace size = 12
REM_GRID_RESTART_DIIS = 0

   12    -152.6402615811      2.31E-07  00000
Finding J and K together
 Job number = 22, Threshold = 1.00E-11
Integral type ranges set in mkLRange.C for JobNum: 22  <1-6|1-6>
 MakeJK  time:  CPU       0.12 s  wall       0.12 s
Fock build time:  0.12 s (CPU) 0.12 s (wall)
DIIS Errors:  Max 3.29E-07 RMS 4.77E-08

Current DIIS subspace size = 13
REM_GRID_RESTART_DIIS = 0

   13    -152.6402615812      4.77E-08  00000
Finding J and K together
 Job number = 22, Threshold = 1.00E-11
Integral type ranges set in mkLRange.C for JobNum: 22  <1-6|1-6>
 MakeJK  time:  CPU       0.12 s  wall       0.12 s
Fock build time:  0.12 s (CPU) 0.12 s (wall)
DIIS Errors:  Max 7.18E-08 RMS 1.01E-08

Current DIIS subspace size = 14
REM_GRID_RESTART_DIIS = 0

   14    -152.6402615812      1.01E-08  00000
Finding J and K together
 Job number = 22, Threshold = 1.00E-11
Integral type ranges set in mkLRange.C for JobNum: 22  <1-6|1-6>
 MakeJK  time:  CPU       0.12 s  wall       0.12 s
Fock build time:  0.12 s (CPU) 0.12 s (wall)
DIIS Errors:  Max 1.72E-08 RMS 2.97E-09

Current DIIS subspace size = 15
REM_GRID_RESTART_DIIS = 0

   15    -152.6402615812      2.97E-09  00000 Convergence criterion met
 ---------------------------------------
 SCF time:  CPU 2.42 s  wall 2.43 s
 SCF   energy in the final basis set = -152.64026158
 Total energy in the final basis set = -152.64026158
drvman_main.C: 73: calling DrvMan  Calculating analytic gradient of the SCF energy
drvman.C : 218: Calculating analytic gradient of the SCF energy
drvman.C: 244: calling SCF_Grad for normal SCF gradient
 Job number = 111, Threshold = 1.00E-11
Integral type ranges set in mkLRange.C for JobNum: 11  <1-6|7-7>
 Warning:  Cost of integrals step H3 set to -747672737
 Warning:  Retrieved cost of -747672737 for integrals step H3
 Warning:  Retrieved cost of -747672737 for integrals step H3
Finding J and K together
 ML is being used
 Job number = 122, Threshold = 1.00E-11
Integral type ranges set in mkLRange.C for JobNum: 22  <1-6|1-6>
 MakeJK  time:  CPU       0.44 s  wall       0.47 s
 Gradient of SCF Energy
            1           2           3           4           5           6
    1  -0.0302881  -0.2980245  -0.0109901  -0.0017197   0.4606889   0.1510066
    2  -0.0256005  -0.0452456   0.0027278  -0.0064172  -0.0201598   0.1655391
    3   0.0055967  -0.0432947  -0.0023085   0.0042941   0.0845482  -0.0177889
            7           8           9          10
    1  -0.1015582  -0.1005766   0.0166919  -0.0852302
    2  -0.1016410   0.0560171  -0.0072919  -0.0179279
    3  -0.0097680  -0.0279218   0.0068910  -0.0002482
 Max gradient component =       4.607E-01
 RMS gradient           =       1.166E-01
drvman.C: 248: out of SCF_Grad for normal SCF gradient
 Gradient time:  CPU 0.46 s  wall 0.49 s
 ------------------------------------------------------------------------------
                     drvman        : Timing summary (seconds)
 ------------------------------------------------------------------------------
     job step          cpu (% of tot)      sys (% of tot)     wall (% of tot)
 ------------------------------------------------------------------------------
 ------------------------------------------------------------------------------
   Grand Totals     0.4560E+00          0.2000E-05          0.4861E+00
 ------------------------------------------------------------------------------
drvman_main.C: 77: out of DrvMan  Time for this dynamics step: 2.9 s (CPU) 3.0 s (wall)

TIME STEP #2 (t = 20.000 a.u. = 0.48378 fs)
--------------------------------------
 Instantaneous Temperature = 888.2 K
 ----------------------------------------------------------------
             Standard Nuclear Orientation (Angstroms)
    I     Atom           X                Y                Z
 ----------------------------------------------------------------
    1      C       4.6026827426     0.2753875997     0.3299756830
    2      C       3.4896793882     0.8226038420    -0.1600954543
    3      H       5.5257704136     0.7990342539     0.3093908715
    4      H       4.5757329763    -0.7020607170     0.8049364329
    5      C       2.4770304596     0.0715554560     0.0141533664
    6      C       1.3272092061     0.9074255770    -0.5597069498
    7      H       0.1500512566    -0.1548192784    -0.6424466309
    8      H       0.5554833165     1.8483454577    -0.8869251437
    9      H       3.5800310993     1.7844301078    -0.5715404025
   10      H       1.8405302792    -0.8099726967     0.3145054566
 ----------------------------------------------------------------
 Nuclear Repulsion Energy =   104.5851337269 hartrees
 There are       15 alpha and       15 beta electrons

                       Distance Matrix (Angstroms)
             C (  1)   C (  2)   H (  3)   H (  4)   C (  5)   C (  6)
   C (  2)  1.333564
   H (  3)  1.061471  2.089651
   H (  4)  1.087069  2.106039  1.844295
   C (  5)  2.158631  1.272751  3.148207  2.372419
   C (  6)  3.452497  2.200718  4.288939  3.873707  1.532998
   H (  7)  4.577839  3.512995  5.542038  4.688395  2.428415  1.587738
   H (  8)  4.509420  3.192168  5.218810  5.052660  2.767900  1.260144
   H (  9)  2.033656  1.050029  2.352222  3.011436  2.119808  2.417537
   H ( 10)  2.967782  2.368596  4.021184  2.780917  1.128023  1.994293
             H (  7)   H (  8)   H (  9)
   H (  8)  2.058352
   H (  9)  3.940873  3.041618
   H ( 10)  2.050049  3.187701  3.246824

 Applying Cartesian multipole field
    Component          Value
    ---------          -----
     (2,0,0)        1.00000E-12
     (0,2,0)        2.00000E-11
     (0,0,2)       -3.00000E-10
 Nucleus-field energy     =    -0.0000000030 hartrees
 ENuRep (before)= 104.5851337269
 ENucField = -0.0000000030
 ENuRep (after) = 104.5851337238
 Job number = 2, Threshold = 1.00E-11
Integral type ranges set in mkLRange.C for JobNum: 2  <1-6|1-6>
Symmetry turned off temporarily
Symmetry turned back on
 Job number = 11, Threshold = 1.00E-11
Integral type ranges set in mkLRange.C for JobNum: 11  <1-6|7-7>
 Smallest overlap matrix eigenvalue = 1.48E-01
 Multipole matrices computed through 2nd order
 Guess from superposition of atomic densities
 Warning:  Energy on first SCF cycle will be non-variational
 SAD guess density has 30.000000 electrons
 SCF convergence criterion is 10**(-8)
 A restricted Hartree-Fock SCF calculation will be
 performed using Pulay DIIS extrapolation
 SCF converges when DIIS error is below 1.0E-08
Finding J and K together
 Job number = 22, Threshold = 1.00E-11
Integral type ranges set in mkLRange.C for JobNum: 22  <1-6|1-6>
 MakeJK  time:  CPU       0.15 s  wall       0.15 s
Fock build time:  0.15 s (CPU) 0.15 s (wall)
DIIS Errors:  Max 1.27E+00 RMS 2.15E-01

Current DIIS subspace size = 1
REM_GRID_RESTART_DIIS = 0

 ---------------------------------------
  Cycle       Energy         DIIS Error
 ---------------------------------------
    1    -152.3728432533      2.15E-01  00000
Finding J and K together
 Job number = 22, Threshold = 1.00E-11
Integral type ranges set in mkLRange.C for JobNum: 22  <1-6|1-6>
 MakeJK  time:  CPU       0.19 s  wall       0.19 s
Fock build time:  0.19 s (CPU) 0.19 s (wall)
DIIS Errors:  Max 9.08E-02 RMS 1.67E-02

Current DIIS subspace size = 2
REM_GRID_RESTART_DIIS = 0

    2    -152.6137807437      1.67E-02  00000
Finding J and K together
 Job number = 22, Threshold = 1.00E-11
Integral type ranges set in mkLRange.C for JobNum: 22  <1-6|1-6>
 MakeJK  time:  CPU       0.19 s  wall       0.19 s
Fock build time:  0.19 s (CPU) 0.19 s (wall)
DIIS Errors:  Max 4.14E-02 RMS 7.63E-03

Current DIIS subspace size = 3
REM_GRID_RESTART_DIIS = 0

    3    -152.6555608799      7.63E-03  00000
Finding J and K together
 Job number = 22, Threshold = 1.00E-11
Integral type ranges set in mkLRange.C for JobNum: 22  <1-6|1-6>
 MakeJK  time:  CPU       0.19 s  wall       0.19 s
Fock build time:  0.19 s (CPU) 0.19 s (wall)
DIIS Errors:  Max 2.15E-02 RMS 3.76E-03

Current DIIS subspace size = 4
REM_GRID_RESTART_DIIS = 0

    4    -152.6616810791      3.76E-03  00000
Finding J and K together
 Job number = 22, Threshold = 1.00E-11
Integral type ranges set in mkLRange.C for JobNum: 22  <1-6|1-6>
 MakeJK  time:  CPU       0.20 s  wall       0.21 s
Fock build time:  0.20 s (CPU) 0.21 s (wall)
DIIS Errors:  Max 8.18E-03 RMS 1.13E-03

Current DIIS subspace size = 5
REM_GRID_RESTART_DIIS = 0

    5    -152.6634052957      1.13E-03  00000
Finding J and K together
 Job number = 22, Threshold = 1.00E-11
Integral type ranges set in mkLRange.C for JobNum: 22  <1-6|1-6>
 MakeJK  time:  CPU       0.20 s  wall       0.20 s
Fock build time:  0.20 s (CPU) 0.20 s (wall)
DIIS Errors:  Max 1.34E-03 RMS 2.25E-04

Current DIIS subspace size = 6
REM_GRID_RESTART_DIIS = 0

    6    -152.6635732355      2.25E-04  00000
Finding J and K together
 Job number = 22, Threshold = 1.00E-11
Integral type ranges set in mkLRange.C for JobNum: 22  <1-6|1-6>
 MakeJK  time:  CPU       0.19 s  wall       0.19 s
Fock build time:  0.19 s (CPU) 0.19 s (wall)
DIIS Errors:  Max 4.96E-04 RMS 6.31E-05

Current DIIS subspace size = 7
REM_GRID_RESTART_DIIS = 0

    7    -152.6635841033      6.31E-05  00000
Finding J and K together
 Job number = 22, Threshold = 1.00E-11
Integral type ranges set in mkLRange.C for JobNum: 22  <1-6|1-6>
 MakeJK  time:  CPU       0.18 s  wall       0.18 s
Fock build time:  0.18 s (CPU) 0.18 s (wall)
DIIS Errors:  Max 1.04E-04 RMS 1.70E-05

Current DIIS subspace size = 8
REM_GRID_RESTART_DIIS = 0

    8    -152.6635857000      1.70E-05  00000
Finding J and K together
 Job number = 22, Threshold = 1.00E-11
Integral type ranges set in mkLRange.C for JobNum: 22  <1-6|1-6>
 MakeJK  time:  CPU       0.18 s  wall       0.19 s
Fock build time:  0.18 s (CPU) 0.19 s (wall)
DIIS Errors:  Max 5.13E-05 RMS 7.67E-06

Current DIIS subspace size = 9
REM_GRID_RESTART_DIIS = 0

    9    -152.6635858042      7.67E-06  00000
Finding J and K together
 Job number = 22, Threshold = 1.00E-11
Integral type ranges set in mkLRange.C for JobNum: 22  <1-6|1-6>
 MakeJK  time:  CPU       0.16 s  wall       0.17 s
Fock build time:  0.16 s (CPU) 0.17 s (wall)
DIIS Errors:  Max 2.05E-05 RMS 3.05E-06

Current DIIS subspace size = 10
REM_GRID_RESTART_DIIS = 0

   10    -152.6635858343      3.05E-06  00000
Finding J and K together
 Job number = 22, Threshold = 1.00E-11
Integral type ranges set in mkLRange.C for JobNum: 22  <1-6|1-6>
 MakeJK  time:  CPU       0.15 s  wall       0.15 s
Fock build time:  0.15 s (CPU) 0.15 s (wall)
DIIS Errors:  Max 4.33E-06 RMS 7.07E-07

Current DIIS subspace size = 11
REM_GRID_RESTART_DIIS = 0

   11    -152.6635858389      7.07E-07  00000
Finding J and K together
 Job number = 22, Threshold = 1.00E-11
Integral type ranges set in mkLRange.C for JobNum: 22  <1-6|1-6>
 MakeJK  time:  CPU       0.15 s  wall       0.15 s
Fock build time:  0.15 s (CPU) 0.15 s (wall)
DIIS Errors:  Max 1.00E-06 RMS 1.89E-07

Current DIIS subspace size = 12
REM_GRID_RESTART_DIIS = 0

   12    -152.6635858391      1.89E-07  00000
Finding J and K together
 Job number = 22, Threshold = 1.00E-11
Integral type ranges set in mkLRange.C for JobNum: 22  <1-6|1-6>
 MakeJK  time:  CPU       0.11 s  wall       0.12 s
Fock build time:  0.11 s (CPU) 0.12 s (wall)
DIIS Errors:  Max 2.43E-07 RMS 3.71E-08

Current DIIS subspace size = 13
REM_GRID_RESTART_DIIS = 0

   13    -152.6635858391      3.71E-08  00000
Finding J and K together
 Job number = 22, Threshold = 1.00E-11
Integral type ranges set in mkLRange.C for JobNum: 22  <1-6|1-6>
 MakeJK  time:  CPU       0.16 s  wall       0.16 s
Fock build time:  0.16 s (CPU) 0.16 s (wall)
DIIS Errors:  Max 4.29E-08 RMS 8.02E-09

Current DIIS subspace size = 14
REM_GRID_RESTART_DIIS = 0

   14    -152.6635858391      8.02E-09  00000 Convergence criterion met
 ---------------------------------------
 SCF time:  CPU 2.44 s  wall 2.46 s
 SCF   energy in the final basis set = -152.66358584
 Total energy in the final basis set = -152.66358584
drvman_main.C: 73: calling DrvMan  Calculating analytic gradient of the SCF energy
drvman.C : 218: Calculating analytic gradient of the SCF energy
drvman.C: 244: calling SCF_Grad for normal SCF gradient
 Job number = 111, Threshold = 1.00E-11
Integral type ranges set in mkLRange.C for JobNum: 11  <1-6|7-7>
Finding J and K together
 ML is being used
 Job number = 122, Threshold = 1.00E-11
Integral type ranges set in mkLRange.C for JobNum: 22  <1-6|1-6>
 MakeJK  time:  CPU       0.47 s  wall       0.48 s
 Gradient of SCF Energy
            1           2           3           4           5           6
    1  -0.0179456  -0.2838368  -0.0207604  -0.0038652   0.4352894   0.1504188
    2  -0.0144358  -0.0232952  -0.0024536  -0.0066935  -0.0403339   0.1703942
    3   0.0018431  -0.0523809  -0.0012008   0.0046840   0.0876493  -0.0201355
            7           8           9          10
    1  -0.1018211  -0.0986465   0.0180381  -0.0768707
    2  -0.1002616   0.0500743  -0.0248003  -0.0081947
    3  -0.0110115  -0.0239062   0.0159947  -0.0015362
 Max gradient component =       4.353E-01
 RMS gradient           =       1.120E-01
drvman.C: 248: out of SCF_Grad for normal SCF gradient
 Gradient time:  CPU 0.49 s  wall 0.50 s
 ------------------------------------------------------------------------------
                     drvman        : Timing summary (seconds)
 ------------------------------------------------------------------------------
     job step          cpu (% of tot)      sys (% of tot)     wall (% of tot)
 ------------------------------------------------------------------------------
 ------------------------------------------------------------------------------
   Grand Totals     0.4880E+00          0.2000E-05          0.4983E+00
 ------------------------------------------------------------------------------
drvman_main.C: 77: out of DrvMan  Time for this dynamics step: 3.0 s (CPU) 3.0 s (wall)

TIME STEP #3 (t = 40.000 a.u. = 0.96755 fs)
--------------------------------------
 Instantaneous Temperature = 1376.5 K
 ----------------------------------------------------------------
             Standard Nuclear Orientation (Angstroms)
    I     Atom           X                Y                Z
 ----------------------------------------------------------------
    1      C       4.6054343074     0.2787599503     0.3291786112
    2      C       3.4968325601     0.8178500902    -0.1651318446
    3      H       5.5172306685     0.8044519289     0.3306076406
    4      H       4.5660738714    -0.6959551987     0.8089376065
    5      C       2.4633846614     0.0724960148     0.0101178416
    6      C       1.3252276667     0.9056836178    -0.5564695157
    7      H       0.1775739138    -0.1189718061    -0.6433135254
    8      H       0.5726346807     1.8306617709    -0.8533398148
    9      H       3.5952667764     1.7702776321    -0.5574754318
   10      H       1.8669571235    -0.7995170835     0.3214644833
 ----------------------------------------------------------------
 Nuclear Repulsion Energy =   104.8922093909 hartrees
 There are       15 alpha and       15 beta electrons

                       Distance Matrix (Angstroms)
             C (  1)   C (  2)   H (  3)   H (  4)   C (  5)   C (  6)
   C (  2)  1.328141
   H (  3)  1.052486  2.080372
   H (  4)  1.087101  2.093727  1.839761
   C (  5)  2.175482  1.286188  3.156651  2.376959
   C (  6)  3.455020  2.208331  4.286029  3.864281  1.520074
   H (  7)  4.550811  3.481921  5.505740  4.658420  2.385071  1.540964
   H (  8)  4.479980  3.170229  5.186894  5.009443  2.722433  1.228866
   H (  9)  2.007790  1.034766  2.327113  2.981921  2.117966  2.429115
   H ( 10)  2.943127  2.347157  3.987141  2.744738  1.101394  1.992975
             H (  7)   H (  8)   H (  9)
   H (  8)  2.000314
   H (  9)  3.906054  3.037678
   H ( 10)  2.061057  3.158049  3.219229

 Applying Cartesian multipole field
    Component          Value
    ---------          -----
     (2,0,0)        1.00000E-12
     (0,2,0)        2.00000E-11
     (0,0,2)       -3.00000E-10
 Nucleus-field energy     =    -0.0000000030 hartrees
 ENuRep (before)= 104.8922093909
 ENucField = -0.0000000030
 ENuRep (after) = 104.8922093880
 Job number = 2, Threshold = 1.00E-11
Integral type ranges set in mkLRange.C for JobNum: 2  <1-6|1-6>
Symmetry turned off temporarily
Symmetry turned back on
 Job number = 11, Threshold = 1.00E-11
Integral type ranges set in mkLRange.C for JobNum: 11  <1-6|7-7>
 Smallest overlap matrix eigenvalue = 1.51E-01
 Multipole matrices computed through 2nd order
 Guess from superposition of atomic densities
 Warning:  Energy on first SCF cycle will be non-variational
 SAD guess density has 30.000000 electrons
 SCF convergence criterion is 10**(-8)
 A restricted Hartree-Fock SCF calculation will be
 performed using Pulay DIIS extrapolation
 SCF converges when DIIS error is below 1.0E-08
Finding J and K together
 Job number = 22, Threshold = 1.00E-11
Integral type ranges set in mkLRange.C for JobNum: 22  <1-6|1-6>
 MakeJK  time:  CPU       0.14 s  wall       0.14 s
Fock build time:  0.14 s (CPU) 0.14 s (wall)
DIIS Errors:  Max 1.24E+00 RMS 2.16E-01

Current DIIS subspace size = 1
REM_GRID_RESTART_DIIS = 0

 ---------------------------------------
  Cycle       Energy         DIIS Error
 ---------------------------------------
    1    -152.4398861332      2.16E-01  00000
Finding J and K together
 Job number = 22, Threshold = 1.00E-11
Integral type ranges set in mkLRange.C for JobNum: 22  <1-6|1-6>
 MakeJK  time:  CPU       0.18 s  wall       0.18 s
Fock build time:  0.18 s (CPU) 0.18 s (wall)
DIIS Errors:  Max 8.25E-02 RMS 1.61E-02

Current DIIS subspace size = 2
REM_GRID_RESTART_DIIS = 0

    2    -152.6531173636      1.61E-02  00000
Finding J and K together
 Job number = 22, Threshold = 1.00E-11
Integral type ranges set in mkLRange.C for JobNum: 22  <1-6|1-6>
 MakeJK  time:  CPU       0.16 s  wall       0.16 s
Fock build time:  0.16 s (CPU) 0.16 s (wall)
DIIS Errors:  Max 3.66E-02 RMS 6.69E-03

Current DIIS subspace size = 3
REM_GRID_RESTART_DIIS = 0

    3    -152.6924475419      6.69E-03  00000
Finding J and K together
 Job number = 22, Threshold = 1.00E-11
Integral type ranges set in mkLRange.C for JobNum: 22  <1-6|1-6>
 MakeJK  time:  CPU       0.11 s  wall       0.11 s
Fock build time:  0.11 s (CPU) 0.11 s (wall)
DIIS Errors:  Max 1.83E-02 RMS 3.29E-03

Current DIIS subspace size = 4
REM_GRID_RESTART_DIIS = 0

    4    -152.6973161226      3.29E-03  00000
Finding J and K together
 Job number = 22, Threshold = 1.00E-11
Integral type ranges set in mkLRange.C for JobNum: 22  <1-6|1-6>
 MakeJK  time:  CPU       0.12 s  wall       0.13 s
Fock build time:  0.12 s (CPU) 0.13 s (wall)
DIIS Errors:  Max 6.95E-03 RMS 9.61E-04

Current DIIS subspace size = 5
REM_GRID_RESTART_DIIS = 0

    5    -152.6986479223      9.61E-04  00000
Finding J and K together
 Job number = 22, Threshold = 1.00E-11
Integral type ranges set in mkLRange.C for JobNum: 22  <1-6|1-6>
 MakeJK  time:  CPU       0.15 s  wall       0.16 s
Fock build time:  0.15 s (CPU) 0.16 s (wall)
DIIS Errors:  Max 1.25E-03 RMS 2.05E-04

Current DIIS subspace size = 6
REM_GRID_RESTART_DIIS = 0

    6    -152.6987665993      2.05E-04  00000
Finding J and K together
 Job number = 22, Threshold = 1.00E-11
Integral type ranges set in mkLRange.C for JobNum: 22  <1-6|1-6>
 MakeJK  time:  CPU       0.16 s  wall       0.17 s
Fock build time:  0.16 s (CPU) 0.17 s (wall)
DIIS Errors:  Max 4.38E-04 RMS 5.48E-05

Current DIIS subspace size = 7
REM_GRID_RESTART_DIIS = 0

    7    -152.6987757004      5.48E-05  00000
Finding J and K together
 Job number = 22, Threshold = 1.00E-11
Integral type ranges set in mkLRange.C for JobNum: 22  <1-6|1-6>
 MakeJK  time:  CPU       0.17 s  wall       0.18 s
Fock build time:  0.17 s (CPU) 0.18 s (wall)
DIIS Errors:  Max 8.70E-05 RMS 1.38E-05

Current DIIS subspace size = 8
REM_GRID_RESTART_DIIS = 0

    8    -152.6987769015      1.38E-05  00000
Finding J and K together
 Job number = 22, Threshold = 1.00E-11
Integral type ranges set in mkLRange.C for JobNum: 22  <1-6|1-6>
 MakeJK  time:  CPU       0.18 s  wall       0.18 s
Fock build time:  0.18 s (CPU) 0.19 s (wall)
DIIS Errors:  Max 4.31E-05 RMS 6.03E-06

Current DIIS subspace size = 9
REM_GRID_RESTART_DIIS = 0

    9    -152.6987769714      6.03E-06  00000
Finding J and K together
 Job number = 22, Threshold = 1.00E-11
Integral type ranges set in mkLRange.C for JobNum: 22  <1-6|1-6>
 MakeJK  time:  CPU       0.16 s  wall       0.16 s
Fock build time:  0.16 s (CPU) 0.16 s (wall)
DIIS Errors:  Max 1.74E-05 RMS 2.35E-06

Current DIIS subspace size = 10
REM_GRID_RESTART_DIIS = 0

   10    -152.6987769903      2.35E-06  00000
Finding J and K together
 Job number = 22, Threshold = 1.00E-11
Integral type ranges set in mkLRange.C for JobNum: 22  <1-6|1-6>
 MakeJK  time:  CPU       0.12 s  wall       0.12 s
Fock build time:  0.12 s (CPU) 0.12 s (wall)
DIIS Errors:  Max 3.42E-06 RMS 5.02E-07

Current DIIS subspace size = 11
REM_GRID_RESTART_DIIS = 0

   11    -152.6987769932      5.02E-07  00000
Finding J and K together
 Job number = 22, Threshold = 1.00E-11
Integral type ranges set in mkLRange.C for JobNum: 22  <1-6|1-6>
 MakeJK  time:  CPU       0.15 s  wall       0.15 s
Fock build time:  0.15 s (CPU) 0.15 s (wall)
DIIS Errors:  Max 8.24E-07 RMS 1.42E-07

Current DIIS subspace size = 12
REM_GRID_RESTART_DIIS = 0

   12    -152.6987769933      1.42E-07  00000
Finding J and K together
 Job number = 22, Threshold = 1.00E-11
Integral type ranges set in mkLRange.C for JobNum: 22  <1-6|1-6>
 MakeJK  time:  CPU       0.14 s  wall       0.14 s
Fock build time:  0.14 s (CPU) 0.14 s (wall)
DIIS Errors:  Max 1.58E-07 RMS 2.63E-08

Current DIIS subspace size = 13
REM_GRID_RESTART_DIIS = 0

   13    -152.6987769933      2.63E-08  00000
Finding J and K together
 Job number = 22, Threshold = 1.00E-11
Integral type ranges set in mkLRange.C for JobNum: 22  <1-6|1-6>
 MakeJK  time:  CPU       0.14 s  wall       0.14 s
Fock build time:  0.14 s (CPU) 0.14 s (wall)
DIIS Errors:  Max 3.13E-08 RMS 6.06E-09

Current DIIS subspace size = 14
REM_GRID_RESTART_DIIS = 0

   14    -152.6987769933      6.06E-09  00000 Convergence criterion met
 ---------------------------------------
 SCF time:  CPU 2.12 s  wall 2.16 s
 SCF   energy in the final basis set = -152.69877699
 Total energy in the final basis set = -152.69877699
drvman_main.C: 73: calling DrvMan  Calculating analytic gradient of the SCF energy
drvman.C : 218: Calculating analytic gradient of the SCF energy
drvman.C: 244: calling SCF_Grad for normal SCF gradient
 Job number = 111, Threshold = 1.00E-11
Integral type ranges set in mkLRange.C for JobNum: 11  <1-6|7-7>
Finding J and K together
 ML is being used
 Job number = 122, Threshold = 1.00E-11
Integral type ranges set in mkLRange.C for JobNum: 22  <1-6|1-6>
 MakeJK  time:  CPU       0.44 s  wall       0.44 s
 Gradient of SCF Energy
            1           2           3           4           5           6
    1  -0.0091840  -0.2582683  -0.0288008  -0.0059118   0.3967071   0.1462252
    2  -0.0035671   0.0003670  -0.0068320  -0.0063674  -0.0704878   0.1789967
    3  -0.0022736  -0.0601232  -0.0004011   0.0047534   0.0936486  -0.0241927
            7           8           9          10
    1  -0.1012821  -0.0938047   0.0185947  -0.0642752
    2  -0.0980220   0.0400964  -0.0407386   0.0065549
    3  -0.0123527  -0.0185203   0.0238346  -0.0043731
 Max gradient component =       3.967E-01
 RMS gradient           =       1.055E-01
drvman.C: 248: out of SCF_Grad for normal SCF gradient
 Gradient time:  CPU 0.46 s  wall 0.46 s
 ------------------------------------------------------------------------------
                     drvman        : Timing summary (seconds)
 ------------------------------------------------------------------------------
     job step          cpu (% of tot)      sys (% of tot)     wall (% of tot)
 ------------------------------------------------------------------------------
 ------------------------------------------------------------------------------
   Grand Totals     0.4560E+00          0.1000E-05          0.4607E+00
 ------------------------------------------------------------------------------
drvman_main.C: 77: out of DrvMan  Time for this dynamics step: 2.6 s (CPU) 2.7 s (wall)

TIME STEP #4 (t = 60.000 a.u. = 1.45133 fs)
--------------------------------------
 Instantaneous Temperature = 2113.4 K
 ----------------------------------------------------------------
             Standard Nuclear Orientation (Angstroms)
    I     Atom           X                Y                Z
 ----------------------------------------------------------------
    1      C       4.6082747412     0.2821668183     0.3284035396
    2      C       3.5064848739     0.8130927870    -0.1695864509
    3      H       5.5120092480     0.8106567653     0.3518706244
    4      H       4.5570959053    -0.6891160480     0.8123911080
    5      C       2.4459001142     0.0741186509     0.0051761225
    6      C       1.3218311745     0.9022095917    -0.5529979805
    7      H       0.2167659092    -0.0718306101    -0.6427571938
    8      H       0.6005938715     1.8083583312    -0.8176206416
    9      H       3.6083600426     1.7608189035    -0.5461565908
   10      H       1.9007895188    -0.7898167039     0.3289273646
 ----------------------------------------------------------------
 Nuclear Repulsion Energy =   105.2383196294 hartrees
 There are       15 alpha and       15 beta electrons

                       Distance Matrix (Angstroms)
             C (  1)   C (  2)   H (  3)   H (  4)   C (  5)   C (  6)
   C (  2)  1.320537
   H (  3)  1.047181  2.072209
   H (  4)  1.086395  2.079590  1.836643
   C (  5)  2.196275  1.304402  3.172335  2.385638
   C (  6)  3.458617  2.219833  4.287745  3.855327  1.503604
   H (  7)  4.511520  3.439365  5.459640  4.619195  2.325975  1.475798
   H (  8)  4.438934  3.139220  5.146370  4.954617  2.662656  1.187987
   H (  9)  1.987737  1.024875  2.309359  2.957690  2.121377  2.442431
   H ( 10)  2.911980  2.322949  3.950057  2.701822  1.071608  1.993975
             H (  7)   H (  8)   H (  9)
   H (  8)  1.926918
   H (  9)  3.856274  3.020366
   H ( 10)  2.072585  3.123395  3.191757

 Applying Cartesian multipole field
    Component          Value
    ---------          -----
     (2,0,0)        1.00000E-12
     (0,2,0)        2.00000E-11
     (0,0,2)       -3.00000E-10
 Nucleus-field energy     =    -0.0000000029 hartrees
 ENuRep (before)= 105.2383196294
 ENucField = -0.0000000029
 ENuRep (after) = 105.2383196265
 Job number = 2, Threshold = 1.00E-11
Integral type ranges set in mkLRange.C for JobNum: 2  <1-6|1-6>
Symmetry turned off temporarily
Symmetry turned back on
 Job number = 11, Threshold = 1.00E-11
Integral type ranges set in mkLRange.C for JobNum: 11  <1-6|7-7>
 Smallest overlap matrix eigenvalue = 1.54E-01
 Multipole matrices computed through 2nd order
 Guess from superposition of atomic densities
 Warning:  Energy on first SCF cycle will be non-variational
 SAD guess density has 30.000000 electrons
 SCF convergence criterion is 10**(-8)
 A restricted Hartree-Fock SCF calculation will be
 performed using Pulay DIIS extrapolation
 SCF converges when DIIS error is below 1.0E-08
Finding J and K together
 Job number = 22, Threshold = 1.00E-11
Integral type ranges set in mkLRange.C for JobNum: 22  <1-6|1-6>
 MakeJK  time:  CPU       0.12 s  wall       0.12 s
Fock build time:  0.12 s (CPU) 0.12 s (wall)
DIIS Errors:  Max 1.20E+00 RMS 2.18E-01

Current DIIS subspace size = 1
REM_GRID_RESTART_DIIS = 0

 ---------------------------------------
  Cycle       Energy         DIIS Error
 ---------------------------------------
    1    -152.5183700009      2.18E-01  00000
Finding J and K together
 Job number = 22, Threshold = 1.00E-11
Integral type ranges set in mkLRange.C for JobNum: 22  <1-6|1-6>
 MakeJK  time:  CPU       0.15 s  wall       0.15 s
Fock build time:  0.15 s (CPU) 0.15 s (wall)
DIIS Errors:  Max 7.85E-02 RMS 1.54E-02

Current DIIS subspace size = 2
REM_GRID_RESTART_DIIS = 0

    2    -152.7021563940      1.54E-02  00000
Finding J and K together
 Job number = 22, Threshold = 1.00E-11
Integral type ranges set in mkLRange.C for JobNum: 22  <1-6|1-6>
 MakeJK  time:  CPU       0.18 s  wall       0.18 s
Fock build time:  0.18 s (CPU) 0.18 s (wall)
DIIS Errors:  Max 3.04E-02 RMS 5.64E-03

Current DIIS subspace size = 3
REM_GRID_RESTART_DIIS = 0

    3    -152.7382454589      5.64E-03  00000
Finding J and K together
 Job number = 22, Threshold = 1.00E-11
Integral type ranges set in mkLRange.C for JobNum: 22  <1-6|1-6>
 MakeJK  time:  CPU       0.14 s  wall       0.15 s
Fock build time:  0.15 s (CPU) 0.15 s (wall)
DIIS Errors:  Max 1.34E-02 RMS 2.65E-03

Current DIIS subspace size = 4
REM_GRID_RESTART_DIIS = 0

    4    -152.7419814527      2.65E-03  00000
Finding J and K together
 Job number = 22, Threshold = 1.00E-11
Integral type ranges set in mkLRange.C for JobNum: 22  <1-6|1-6>
 MakeJK  time:  CPU       0.13 s  wall       0.13 s
Fock build time:  0.13 s (CPU) 0.13 s (wall)
DIIS Errors:  Max 4.92E-03 RMS 6.91E-04

Current DIIS subspace size = 5
REM_GRID_RESTART_DIIS = 0

    5    -152.7428595610      6.91E-04  00000
Finding J and K together
 Job number = 22, Threshold = 1.00E-11
Integral type ranges set in mkLRange.C for JobNum: 22  <1-6|1-6>
 MakeJK  time:  CPU       0.13 s  wall       0.13 s
Fock build time:  0.13 s (CPU) 0.13 s (wall)
DIIS Errors:  Max 1.11E-03 RMS 1.83E-04

Current DIIS subspace size = 6
REM_GRID_RESTART_DIIS = 0

    6    -152.7429207663      1.83E-04  00000
Finding J and K together
 Job number = 22, Threshold = 1.00E-11
Integral type ranges set in mkLRange.C for JobNum: 22  <1-6|1-6>
 MakeJK  time:  CPU       0.13 s  wall       0.13 s
Fock build time:  0.13 s (CPU) 0.13 s (wall)
DIIS Errors:  Max 3.57E-04 RMS 4.47E-05

Current DIIS subspace size = 7
REM_GRID_RESTART_DIIS = 0

    7    -152.7429277712      4.47E-05  00000
Finding J and K together
 Job number = 22, Threshold = 1.00E-11
Integral type ranges set in mkLRange.C for JobNum: 22  <1-6|1-6>
 MakeJK  time:  CPU       0.12 s  wall       0.13 s
Fock build time:  0.12 s (CPU) 0.13 s (wall)
DIIS Errors:  Max 6.62E-05 RMS 1.05E-05

Current DIIS subspace size = 8
REM_GRID_RESTART_DIIS = 0

    8    -152.7429285438      1.05E-05  00000
Finding J and K together
 Job number = 22, Threshold = 1.00E-11
Integral type ranges set in mkLRange.C for JobNum: 22  <1-6|1-6>
 MakeJK  time:  CPU       0.14 s  wall       0.15 s
Fock build time:  0.14 s (CPU) 0.15 s (wall)
DIIS Errors:  Max 3.25E-05 RMS 4.44E-06

Current DIIS subspace size = 9
REM_GRID_RESTART_DIIS = 0

    9    -152.7429285837      4.44E-06  00000
Finding J and K together
 Job number = 22, Threshold = 1.00E-11
Integral type ranges set in mkLRange.C for JobNum: 22  <1-6|1-6>
 MakeJK  time:  CPU       0.20 s  wall       0.20 s
Fock build time:  0.20 s (CPU) 0.20 s (wall)
DIIS Errors:  Max 1.34E-05 RMS 1.70E-06

Current DIIS subspace size = 10
REM_GRID_RESTART_DIIS = 0

   10    -152.7429285938      1.70E-06  00000
Finding J and K together
 Job number = 22, Threshold = 1.00E-11
Integral type ranges set in mkLRange.C for JobNum: 22  <1-6|1-6>
 MakeJK  time:  CPU       0.20 s  wall       0.20 s
Fock build time:  0.20 s (CPU) 0.20 s (wall)
DIIS Errors:  Max 2.39E-06 RMS 3.27E-07

Current DIIS subspace size = 11
REM_GRID_RESTART_DIIS = 0

   11    -152.7429285952      3.27E-07  00000
Finding J and K together
 Job number = 22, Threshold = 1.00E-11
Integral type ranges set in mkLRange.C for JobNum: 22  <1-6|1-6>
 MakeJK  time:  CPU       0.20 s  wall       0.20 s
Fock build time:  0.20 s (CPU) 0.20 s (wall)
DIIS Errors:  Max 5.94E-07 RMS 9.73E-08

Current DIIS subspace size = 12
REM_GRID_RESTART_DIIS = 0

   12    -152.7429285952      9.73E-08  00000
Finding J and K together
 Job number = 22, Threshold = 1.00E-11
Integral type ranges set in mkLRange.C for JobNum: 22  <1-6|1-6>
 MakeJK  time:  CPU       0.17 s  wall       0.17 s
Fock build time:  0.17 s (CPU) 0.17 s (wall)
DIIS Errors:  Max 1.02E-07 RMS 1.71E-08

Current DIIS subspace size = 13
REM_GRID_RESTART_DIIS = 0

   13    -152.7429285952      1.71E-08  00000
Finding J and K together
 Job number = 22, Threshold = 1.00E-11
Integral type ranges set in mkLRange.C for JobNum: 22  <1-6|1-6>
 MakeJK  time:  CPU       0.13 s  wall       0.13 s
Fock build time:  0.13 s (CPU) 0.13 s (wall)
DIIS Errors:  Max 2.01E-08 RMS 4.06E-09

Current DIIS subspace size = 14
REM_GRID_RESTART_DIIS = 0

   14    -152.7429285952      4.06E-09  00000 Convergence criterion met
 ---------------------------------------
 SCF time:  CPU 2.17 s  wall 2.18 s
 SCF   energy in the final basis set = -152.74292860
 Total energy in the final basis set = -152.74292860
drvman_main.C: 73: calling DrvMan  Calculating analytic gradient of the SCF energy
drvman.C : 218: Calculating analytic gradient of the SCF energy
drvman.C: 244: calling SCF_Grad for normal SCF gradient
 Job number = 111, Threshold = 1.00E-11
Integral type ranges set in mkLRange.C for JobNum: 11  <1-6|7-7>
Finding J and K together
 ML is being used
 Job number = 122, Threshold = 1.00E-11
Integral type ranges set in mkLRange.C for JobNum: 22  <1-6|1-6>
 MakeJK  time:  CPU       0.38 s  wall       0.39 s
 Gradient of SCF Energy
            1           2           3           4           5           6
    1  -0.0058474  -0.2235832  -0.0337222  -0.0078045   0.3475071   0.1368683
    2   0.0061157   0.0202559  -0.0095390  -0.0053418  -0.1075810   0.1912394
    3  -0.0070481  -0.0646026   0.0002279   0.0044617   0.1018277  -0.0299169
            7           8           9          10
    1  -0.0986485  -0.0851691   0.0187682  -0.0483688
    2  -0.0936757   0.0245475  -0.0519809   0.0259598
    3  -0.0137302  -0.0115894   0.0292258  -0.0088561
 Max gradient component =       3.475E-01
 RMS gradient           =       9.809E-02
drvman.C: 248: out of SCF_Grad for normal SCF gradient
 Gradient time:  CPU 0.40 s  wall 0.40 s
 ------------------------------------------------------------------------------
                     drvman        : Timing summary (seconds)
 ------------------------------------------------------------------------------
     job step          cpu (% of tot)      sys (% of tot)     wall (% of tot)
 ------------------------------------------------------------------------------
 ------------------------------------------------------------------------------
   Grand Totals     0.4040E+00          0.0000E+00          0.4041E+00
 ------------------------------------------------------------------------------
drvman_main.C: 77: out of DrvMan  Time for this dynamics step: 2.6 s (CPU) 2.6 s (wall)

TIME STEP #5 (t = 80.000 a.u. = 1.93511 fs)
--------------------------------------
 Instantaneous Temperature = 3037.5 K
 ----------------------------------------------------------------
             Standard Nuclear Orientation (Angstroms)
    I     Atom           X                Y                Z
 ----------------------------------------------------------------
    1      C       4.6111717573     0.2855145075     0.3276966689
    2      C       3.5183006978     0.8081394766    -0.1734159285
    3      H       5.5106731750     0.8179606490     0.3731073470
    4      H       4.5490171435    -0.6816614369     0.8153305470
    5      C       2.4250529035     0.0767822984    -0.0007509356
    6      C       1.3171102713     0.8968850309    -0.5492369536
    7      H       0.2673238123    -0.0138964550    -0.6406189229
    8      H       0.6383659227     1.7832266261    -0.7805661782
    9      H       3.6192909083     1.7573492137    -0.5382050417
   10      H       1.9401947831    -0.7831073137     0.3374106112
 ----------------------------------------------------------------
 Nuclear Repulsion Energy =   105.6205309737 hartrees
 There are       15 alpha and       15 beta electrons

                       Distance Matrix (Angstroms)
             C (  1)   C (  2)   H (  3)   H (  4)   C (  5)   C (  6)
   C (  2)  1.310961
   H (  3)  1.046262  2.065994
   H (  4)  1.084933  2.063856  1.835541
   C (  5)  2.220487  1.326607  3.195335  2.398427
   C (  6)  3.463182  2.234806  4.294522  3.846957  1.483557
   H (  7)  4.460527  3.385686  5.404844  4.571498  2.252432  1.392812
   H (  8)  4.388003  3.100557  5.099223  4.890373  2.590813  1.140091
   H (  9)  1.974819  1.021895  2.300058  2.940276  2.130579  2.457754
   H ( 10)  2.876832  2.298571  3.913184  2.654176  1.043480  1.999188
             H (  7)   H (  8)   H (  9)
   H (  8)  1.840356
   H (  9)  3.792556  2.990873
   H ( 10)  2.084880  3.087183  3.168594

 Applying Cartesian multipole field
    Component          Value
    ---------          -----
     (2,0,0)        1.00000E-12
     (0,2,0)        2.00000E-11
     (0,0,2)       -3.00000E-10
 Nucleus-field energy     =    -0.0000000028 hartrees
 ENuRep (before)= 105.6205309737
 ENucField = -0.0000000028
 ENuRep (after) = 105.6205309709
 Job number = 2, Threshold = 1.00E-11
Integral type ranges set in mkLRange.C for JobNum: 2  <1-6|1-6>
Symmetry turned off temporarily
Symmetry turned back on
 Job number = 11, Threshold = 1.00E-11
Integral type ranges set in mkLRange.C for JobNum: 11  <1-6|7-7>
 Smallest overlap matrix eigenvalue = 1.56E-01
 Multipole matrices computed through 2nd order
 Guess from superposition of atomic densities
 Warning:  Energy on first SCF cycle will be non-variational
 SAD guess density has 30.000000 electrons
 SCF convergence criterion is 10**(-8)
 A restricted Hartree-Fock SCF calculation will be
 performed using Pulay DIIS extrapolation
 SCF converges when DIIS error is below 1.0E-08
Finding J and K together
 Job number = 22, Threshold = 1.00E-11
Integral type ranges set in mkLRange.C for JobNum: 22  <1-6|1-6>
 MakeJK  time:  CPU       0.09 s  wall       0.09 s
Fock build time:  0.09 s (CPU) 0.09 s (wall)
DIIS Errors:  Max 1.19E+00 RMS 2.19E-01

Current DIIS subspace size = 1
REM_GRID_RESTART_DIIS = 0

 ---------------------------------------
  Cycle       Energy         DIIS Error
 ---------------------------------------
    1    -152.6088014076      2.19E-01  00000
Finding J and K together
 Job number = 22, Threshold = 1.00E-11
Integral type ranges set in mkLRange.C for JobNum: 22  <1-6|1-6>
 MakeJK  time:  CPU       0.13 s  wall       0.13 s
Fock build time:  0.13 s (CPU) 0.13 s (wall)
DIIS Errors:  Max 7.49E-02 RMS 1.47E-02

Current DIIS subspace size = 2
REM_GRID_RESTART_DIIS = 0

    2    -152.7561748890      1.47E-02  00000
Finding J and K together
 Job number = 22, Threshold = 1.00E-11
Integral type ranges set in mkLRange.C for JobNum: 22  <1-6|1-6>
 MakeJK  time:  CPU       0.19 s  wall       0.20 s
Fock build time:  0.19 s (CPU) 0.20 s (wall)
DIIS Errors:  Max 2.48E-02 RMS 4.79E-03

Current DIIS subspace size = 3
REM_GRID_RESTART_DIIS = 0

    3    -152.7887070170      4.79E-03  00000
Finding J and K together
 Job number = 22, Threshold = 1.00E-11
Integral type ranges set in mkLRange.C for JobNum: 22  <1-6|1-6>
 MakeJK  time:  CPU       0.20 s  wall       0.20 s
Fock build time:  0.20 s (CPU) 0.20 s (wall)
DIIS Errors:  Max 1.10E-02 RMS 1.99E-03

Current DIIS subspace size = 4
REM_GRID_RESTART_DIIS = 0

    4    -152.7916762621      1.99E-03  00000
Finding J and K together
 Job number = 22, Threshold = 1.00E-11
Integral type ranges set in mkLRange.C for JobNum: 22  <1-6|1-6>
 MakeJK  time:  CPU       0.16 s  wall       0.16 s
Fock build time:  0.16 s (CPU) 0.16 s (wall)
DIIS Errors:  Max 1.79E-03 RMS 3.01E-04

Current DIIS subspace size = 5
REM_GRID_RESTART_DIIS = 0

    5    -152.7921923391      3.01E-04  00000
Finding J and K together
 Job number = 22, Threshold = 1.00E-11
Integral type ranges set in mkLRange.C for JobNum: 22  <1-6|1-6>
 MakeJK  time:  CPU       0.16 s  wall       0.17 s
Fock build time:  0.16 s (CPU) 0.17 s (wall)
DIIS Errors:  Max 8.08E-04 RMS 1.46E-04

Current DIIS subspace size = 6
REM_GRID_RESTART_DIIS = 0

    6    -152.7922078002      1.46E-04  00000
Finding J and K together
 Job number = 22, Threshold = 1.00E-11
Integral type ranges set in mkLRange.C for JobNum: 22  <1-6|1-6>
 MakeJK  time:  CPU       0.16 s  wall       0.16 s
Fock build time:  0.16 s (CPU) 0.16 s (wall)
DIIS Errors:  Max 2.46E-04 RMS 3.57E-05

Current DIIS subspace size = 7
REM_GRID_RESTART_DIIS = 0

    7    -152.7922117031      3.57E-05  00000
Finding J and K together
 Job number = 22, Threshold = 1.00E-11
Integral type ranges set in mkLRange.C for JobNum: 22  <1-6|1-6>
 MakeJK  time:  CPU       0.11 s  wall       0.11 s
Fock build time:  0.11 s (CPU) 0.11 s (wall)
DIIS Errors:  Max 4.74E-05 RMS 7.82E-06

Current DIIS subspace size = 8
REM_GRID_RESTART_DIIS = 0

    8    -152.7922120987      7.82E-06  00000
Finding J and K together
 Job number = 22, Threshold = 1.00E-11
Integral type ranges set in mkLRange.C for JobNum: 22  <1-6|1-6>
 MakeJK  time:  CPU       0.19 s  wall       0.19 s
Fock build time:  0.19 s (CPU) 0.19 s (wall)
DIIS Errors:  Max 2.16E-05 RMS 3.12E-06

Current DIIS subspace size = 9
REM_GRID_RESTART_DIIS = 0

    9    -152.7922121186      3.12E-06  00000
Finding J and K together
 Job number = 22, Threshold = 1.00E-11
Integral type ranges set in mkLRange.C for JobNum: 22  <1-6|1-6>
 MakeJK  time:  CPU       0.19 s  wall       0.19 s
Fock build time:  0.19 s (CPU) 0.19 s (wall)
DIIS Errors:  Max 9.05E-06 RMS 1.16E-06

Current DIIS subspace size = 10
REM_GRID_RESTART_DIIS = 0

   10    -152.7922121230      1.16E-06  00000
Finding J and K together
 Job number = 22, Threshold = 1.00E-11
Integral type ranges set in mkLRange.C for JobNum: 22  <1-6|1-6>
 MakeJK  time:  CPU       0.18 s  wall       0.19 s
Fock build time:  0.18 s (CPU) 0.19 s (wall)
DIIS Errors:  Max 1.48E-06 RMS 1.99E-07

Current DIIS subspace size = 11
REM_GRID_RESTART_DIIS = 0

   11    -152.7922121236      1.99E-07  00000
Finding J and K together
 Job number = 22, Threshold = 1.00E-11
Integral type ranges set in mkLRange.C for JobNum: 22  <1-6|1-6>
 MakeJK  time:  CPU       0.18 s  wall       0.18 s
Fock build time:  0.18 s (CPU) 0.19 s (wall)
DIIS Errors:  Max 3.53E-07 RMS 6.02E-08

Current DIIS subspace size = 12
REM_GRID_RESTART_DIIS = 0

   12    -152.7922121236      6.02E-08  00000
Finding J and K together
 Job number = 22, Threshold = 1.00E-11
Integral type ranges set in mkLRange.C for JobNum: 22  <1-6|1-6>
 MakeJK  time:  CPU       0.15 s  wall       0.15 s
Fock build time:  0.15 s (CPU) 0.15 s (wall)
DIIS Errors:  Max 5.93E-08 RMS 9.96E-09

Current DIIS subspace size = 13
REM_GRID_RESTART_DIIS = 0

   13    -152.7922121236      9.96E-09  00000 Convergence criterion met
 ---------------------------------------
 SCF time:  CPU 2.13 s  wall 2.16 s
 SCF   energy in the final basis set = -152.79221212
 Total energy in the final basis set = -152.79221212
drvman_main.C: 73: calling DrvMan  Calculating analytic gradient of the SCF energy
drvman.C : 218: Calculating analytic gradient of the SCF energy
drvman.C: 244: calling SCF_Grad for normal SCF gradient
 Job number = 111, Threshold = 1.00E-11
Integral type ranges set in mkLRange.C for JobNum: 11  <1-6|7-7>
Finding J and K together
 ML is being used
 Job number = 122, Threshold = 1.00E-11
Integral type ranges set in mkLRange.C for JobNum: 22  <1-6|1-6>
 MakeJK  time:  CPU       0.37 s  wall       0.37 s
 Gradient of SCF Energy
            1           2           3           4           5           6
    1  -0.0092209  -0.1823057  -0.0346076  -0.0094969   0.2917616   0.1198063
    2   0.0140193   0.0313028  -0.0099562  -0.0035949  -0.1463179   0.2060530
    3  -0.0128715  -0.0642065   0.0009246   0.0037957   0.1105398  -0.0370733
            7           8           9          10
    1  -0.0913678  -0.0718937   0.0188972  -0.0315725
    2  -0.0849938   0.0015447  -0.0558027   0.0477458
    3  -0.0149241  -0.0030853   0.0313055  -0.0144048
 Max gradient component =       2.918E-01
 RMS gradient           =       9.056E-02
drvman.C: 248: out of SCF_Grad for normal SCF gradient
 Gradient time:  CPU 0.38 s  wall 0.38 s
 ------------------------------------------------------------------------------
                     drvman        : Timing summary (seconds)
 ------------------------------------------------------------------------------
     job step          cpu (% of tot)      sys (% of tot)     wall (% of tot)
 ------------------------------------------------------------------------------
 ------------------------------------------------------------------------------
   Grand Totals     0.3800E+00          0.1000E-05          0.3825E+00
 ------------------------------------------------------------------------------
drvman_main.C: 77: out of DrvMan  Time for this dynamics step: 2.5 s (CPU) 2.6 s (wall)

TIME STEP #6 (t = 100.000 a.u. = 2.41888 fs)
--------------------------------------
 Instantaneous Temperature = 4067.9 K
 ----------------------------------------------------------------
             Standard Nuclear Orientation (Angstroms)
    I     Atom           X                Y                Z
 ----------------------------------------------------------------
    1      C       4.6141579994     0.2887265388     0.3271143497
    2      C       3.5318806088     0.8028832632    -0.1766241098
    3      H       5.5133244632     0.8264116514     0.3942375442
    4      H       4.5420325766    -0.6737926296     0.8178326655
    5      C       2.4013824524     0.0808617960    -0.0077476362
    6      C       1.3112300585     0.8895665919    -0.5451171862
    7      H       0.3284087729     0.0538303639    -0.6367611496
    8      H       0.6844212953     1.7579169477    -0.7431562352
    9      H       3.6280445060     1.7603088988    -0.5338603927
   10      H       1.9832377141    -0.7818990117     0.3475535290
 ----------------------------------------------------------------
 Nuclear Repulsion Energy =   106.0352985914 hartrees
 There are       15 alpha and       15 beta electrons

                       Distance Matrix (Angstroms)
             C (  1)   C (  2)   H (  3)   H (  4)   C (  5)   C (  6)
   C (  2)  1.299782
   H (  3)  1.049815  2.062173
   H (  4)  1.082797  2.046930  1.836696
   C (  5)  2.247602  1.351984  3.225154  2.415258
   C (  6)  3.468592  2.252685  4.306271  3.839246  1.459864
   H (  7)  4.399077  3.321903  5.342583  4.516625  2.166474  1.293364
   H (  8)  4.329761  3.056317  5.047739  4.819861  2.510238  1.089101
   H (  9)  1.969582  1.026416  2.299524  2.930409  2.145236  2.475065
   H ( 10)  2.840493  2.276970  3.879479  2.603897  1.022468  2.010535
             H (  7)   H (  8)   H (  9)
   H (  8)  1.744126
   H (  9)  3.716215  2.951055
   H ( 10)  2.098994  3.054053  3.153585

 Applying Cartesian multipole field
    Component          Value
    ---------          -----
     (2,0,0)        1.00000E-12
     (0,2,0)        2.00000E-11
     (0,0,2)       -3.00000E-10
 Nucleus-field energy     =    -0.0000000028 hartrees
 ENuRep (before)= 106.0352985914
 ENucField = -0.0000000028
 ENuRep (after) = 106.0352985886
 Job number = 2, Threshold = 1.00E-11
Integral type ranges set in mkLRange.C for JobNum: 2  <1-6|1-6>
Symmetry turned off temporarily
Symmetry turned back on
 Job number = 11, Threshold = 1.00E-11
Integral type ranges set in mkLRange.C for JobNum: 11  <1-6|7-7>
 Smallest overlap matrix eigenvalue = 1.58E-01
 Multipole matrices computed through 2nd order
 Guess from superposition of atomic densities
 Warning:  Energy on first SCF cycle will be non-variational
 SAD guess density has 30.000000 electrons
 SCF convergence criterion is 10**(-8)
 A restricted Hartree-Fock SCF calculation will be
 performed using Pulay DIIS extrapolation
 SCF converges when DIIS error is below 1.0E-08
Finding J and K together
 Job number = 22, Threshold = 1.00E-11
Integral type ranges set in mkLRange.C for JobNum: 22  <1-6|1-6>
 MakeJK  time:  CPU       0.10 s  wall       0.11 s
Fock build time:  0.10 s (CPU) 0.11 s (wall)
DIIS Errors:  Max 1.20E+00 RMS 2.22E-01

Current DIIS subspace size = 1
REM_GRID_RESTART_DIIS = 0

 ---------------------------------------
  Cycle       Energy         DIIS Error
 ---------------------------------------
    1    -152.7119829255      2.22E-01  00000
Finding J and K together
 Job number = 22, Threshold = 1.00E-11
Integral type ranges set in mkLRange.C for JobNum: 22  <1-6|1-6>
 MakeJK  time:  CPU       0.17 s  wall       0.17 s
Fock build time:  0.17 s (CPU) 0.17 s (wall)
DIIS Errors:  Max 7.10E-02 RMS 1.41E-02

Current DIIS subspace size = 2
REM_GRID_RESTART_DIIS = 0

    2    -152.8093506263      1.41E-02  00000
Finding J and K together
 Job number = 22, Threshold = 1.00E-11
Integral type ranges set in mkLRange.C for JobNum: 22  <1-6|1-6>
 MakeJK  time:  CPU       0.13 s  wall       0.13 s
Fock build time:  0.13 s (CPU) 0.13 s (wall)
DIIS Errors:  Max 2.39E-02 RMS 4.38E-03

Current DIIS subspace size = 3
REM_GRID_RESTART_DIIS = 0

    3    -152.8387003053      4.38E-03  00000
Finding J and K together
 Job number = 22, Threshold = 1.00E-11
Integral type ranges set in mkLRange.C for JobNum: 22  <1-6|1-6>
 MakeJK  time:  CPU       0.13 s  wall       0.13 s
Fock build time:  0.13 s (CPU) 0.13 s (wall)
DIIS Errors:  Max 9.12E-03 RMS 1.80E-03

Current DIIS subspace size = 4
REM_GRID_RESTART_DIIS = 0

    4    -152.8411940219      1.80E-03  00000
Finding J and K together
 Job number = 22, Threshold = 1.00E-11
Integral type ranges set in mkLRange.C for JobNum: 22  <1-6|1-6>
 MakeJK  time:  CPU       0.14 s  wall       0.14 s
Fock build time:  0.14 s (CPU) 0.14 s (wall)
DIIS Errors:  Max 1.52E-03 RMS 2.36E-04

Current DIIS subspace size = 5
REM_GRID_RESTART_DIIS = 0

    5    -152.8415998327      2.36E-04  00000
Finding J and K together
 Job number = 22, Threshold = 1.00E-11
Integral type ranges set in mkLRange.C for JobNum: 22  <1-6|1-6>
 MakeJK  time:  CPU       0.14 s  wall       0.13 s
Fock build time:  0.14 s (CPU) 0.13 s (wall)
DIIS Errors:  Max 6.34E-04 RMS 1.04E-04

Current DIIS subspace size = 6
REM_GRID_RESTART_DIIS = 0

    6    -152.8416100570      1.04E-04  00000
Finding J and K together
 Job number = 22, Threshold = 1.00E-11
Integral type ranges set in mkLRange.C for JobNum: 22  <1-6|1-6>
 MakeJK  time:  CPU       0.13 s  wall       0.13 s
Fock build time:  0.13 s (CPU) 0.13 s (wall)
DIIS Errors:  Max 1.71E-04 RMS 2.86E-05

Current DIIS subspace size = 7
REM_GRID_RESTART_DIIS = 0

    7    -152.8416124053      2.86E-05  00000
Finding J and K together
 Job number = 22, Threshold = 1.00E-11
Integral type ranges set in mkLRange.C for JobNum: 22  <1-6|1-6>
 MakeJK  time:  CPU       0.17 s  wall       0.17 s
Fock build time:  0.17 s (CPU) 0.17 s (wall)
DIIS Errors:  Max 3.70E-05 RMS 5.64E-06

Current DIIS subspace size = 8
REM_GRID_RESTART_DIIS = 0

    8    -152.8416125883      5.64E-06  00000
Finding J and K together
 Job number = 22, Threshold = 1.00E-11
Integral type ranges set in mkLRange.C for JobNum: 22  <1-6|1-6>
 MakeJK  time:  CPU       0.18 s  wall       0.18 s
Fock build time:  0.18 s (CPU) 0.18 s (wall)
DIIS Errors:  Max 1.55E-05 RMS 2.43E-06

[...]
 RMS gradient           =       1.177E-01
drvman.C: 248: out of SCF_Grad for normal SCF gradient
 Gradient time:  CPU 0.49 s  wall 0.49 s
 ------------------------------------------------------------------------------
                     drvman        : Timing summary (seconds)
 ------------------------------------------------------------------------------
     job step          cpu (% of tot)      sys (% of tot)     wall (% of tot)
 ------------------------------------------------------------------------------
 ------------------------------------------------------------------------------
   Grand Totals     0.4880E+00          0.3000E-05          0.4890E+00
 ------------------------------------------------------------------------------
drvman_main.C: 77: out of DrvMan  Time for this dynamics step: 1.8 s (CPU) 1.8 s (wall)

TIME STEP #399 (t = 7960.000 a.u. = 192.54319 fs)
--------------------------------------
 Instantaneous Temperature = 5298.1 K
 ----------------------------------------------------------------
             Standard Nuclear Orientation (Angstroms)
    I     Atom           X                Y                Z
 ----------------------------------------------------------------
    1      C       4.5118800142    -0.0479820904    -0.3535110769
    2      C       3.7100990578     0.6595575091     0.1945684947
    3      H       5.6082277279    -0.0503847414    -0.4559604735
    4      H       4.2280807053    -0.8992472473    -1.0872089512
    5      C       2.2103384993     0.4257893732     0.2123459801
    6      C       1.3377132305     0.9976005046    -0.3740770060
    7      H       0.2344176028     1.4891917621    -0.1824550944
    8      H       1.6439743502     1.6779932309    -1.1212251388
    9      H       4.0347160508     1.5479360691     0.7175115728
   10      H       1.9852346251    -0.5003621533     0.8023893911
 ----------------------------------------------------------------
 Nuclear Repulsion Energy =   107.0305292240 hartrees
 There are       15 alpha and       15 beta electrons

                       Distance Matrix (Angstroms)
             C (  1)   C (  2)   H (  3)   H (  4)   C (  5)   C (  6)
   C (  2)  1.201606
   H (  3)  1.101127  2.128403
   H (  4)  1.159097  2.083538  1.738922
   C (  5)  2.416971  1.517974  3.495572  2.741505
   C (  6)  3.342005  2.462894  4.397985  3.529988  1.196802
   H (  7)  4.548500  3.593160  5.596690  4.740524  2.278367  1.222964
   H (  8)  3.434131  2.652809  4.375520  3.649785  1.914992  1.055917
   H (  9)  1.980336  1.080769  2.531325  3.046820  2.200627  2.961125
   H ( 10)  2.815083  2.165645  3.861606  2.959738  1.120973  2.011778
             H (  7)   H (  8)   H (  9)
   H (  8)  1.704050
   H (  9)  3.905849  3.018860
   H ( 10)  2.827296  2.926087  2.898811

 Applying Cartesian multipole field
    Component          Value
    ---------          -----
     (2,0,0)        1.00000E-12
     (0,2,0)        2.00000E-11
     (0,0,2)       -3.00000E-10
 Nucleus-field energy     =    -0.0000000039 hartrees
 ENuRep (before)= 107.0305292240
 ENucField = -0.0000000039
 ENuRep (after) = 107.0305292201
 Job number = 2, Threshold = 1.00E-11
Integral type ranges set in mkLRange.C for JobNum: 2  <1-6|1-6>
Symmetry turned off temporarily
Symmetry turned back on
 Job number = 11, Threshold = 1.00E-11
Integral type ranges set in mkLRange.C for JobNum: 11  <1-6|7-7>
 Smallest overlap matrix eigenvalue = 1.31E-01
 Multipole matrices computed through 2nd order
 Extrapolating the Fock matrix using 12 points and a 6th-order polynomial
 Alpha Fock matrix extrapolation
 Skip SCF guess (diagonalize extrapolated Fock matrix instead)
 SCF convergence criterion is 10**(-8)
 A restricted Hartree-Fock SCF calculation will be
 performed using Pulay DIIS extrapolation
 SCF converges when DIIS error is below 1.0E-08
Extrapolated Fock matrix used in lieu of Fock build
Fock build time:  0.00 s (CPU) 0.00 s (wall)
DIIS Errors:  Max 1.32E-01 RMS 1.06E-02

Current DIIS subspace size = 1
REM_GRID_RESTART_DIIS = 0

 ---------------------------------------
  Cycle       Energy         DIIS Error
 ---------------------------------------
    1    -311.8687778011      1.06E-02  00000
Finding J and K together
 Job number = 22, Threshold = 1.00E-11
Integral type ranges set in mkLRange.C for JobNum: 22  <1-6|1-6>
 MakeJK  time:  CPU       0.17 s  wall       0.17 s
Fock build time:  0.18 s (CPU) 0.17 s (wall)
DIIS Errors:  Max 6.82E-03 RMS 7.32E-04

Current DIIS subspace size = 2
REM_GRID_RESTART_DIIS = 0

    2    -152.8868228362      7.32E-04  00000
Finding J and K together
 Job number = 22, Threshold = 1.00E-11
Integral type ranges set in mkLRange.C for JobNum: 22  <1-6|1-6>
 MakeJK  time:  CPU       0.13 s  wall       0.13 s
Fock build time:  0.13 s (CPU) 0.13 s (wall)
DIIS Errors:  Max 4.04E-04 RMS 6.74E-05

Current DIIS subspace size = 3
REM_GRID_RESTART_DIIS = 0

    3    -152.8868361604      6.74E-05  00000
Finding J and K together
 Job number = 22, Threshold = 1.00E-11
Integral type ranges set in mkLRange.C for JobNum: 22  <1-6|1-6>
 MakeJK  time:  CPU       0.13 s  wall       0.13 s
Fock build time:  0.13 s (CPU) 0.13 s (wall)
DIIS Errors:  Max 8.57E-05 RMS 1.25E-05

Current DIIS subspace size = 4
REM_GRID_RESTART_DIIS = 0

    4    -152.8868366505      1.25E-05  00000
Finding J and K together
 Job number = 22, Threshold = 1.00E-11
Integral type ranges set in mkLRange.C for JobNum: 22  <1-6|1-6>
 MakeJK  time:  CPU       0.18 s  wall       0.21 s
Fock build time:  0.18 s (CPU) 0.21 s (wall)
DIIS Errors:  Max 2.17E-05 RMS 3.50E-06

Current DIIS subspace size = 5
REM_GRID_RESTART_DIIS = 0

    5    -152.8868366835      3.50E-06  00000
Finding J and K together
 Job number = 22, Threshold = 1.00E-11
Integral type ranges set in mkLRange.C for JobNum: 22  <1-6|1-6>
 MakeJK  time:  CPU       0.20 s  wall       0.21 s
Fock build time:  0.20 s (CPU) 0.21 s (wall)
DIIS Errors:  Max 7.25E-06 RMS 8.77E-07

Current DIIS subspace size = 6
REM_GRID_RESTART_DIIS = 0

    6    -152.8868366851      8.77E-07  00000
Finding J and K together
 Job number = 22, Threshold = 1.00E-11
Integral type ranges set in mkLRange.C for JobNum: 22  <1-6|1-6>
 MakeJK  time:  CPU       0.20 s  wall       0.23 s
Fock build time:  0.20 s (CPU) 0.23 s (wall)
DIIS Errors:  Max 2.19E-06 RMS 2.75E-07

Current DIIS subspace size = 7
REM_GRID_RESTART_DIIS = 0

    7    -152.8868366853      2.75E-07  00000
Finding J and K together
 Job number = 22, Threshold = 1.00E-11
Integral type ranges set in mkLRange.C for JobNum: 22  <1-6|1-6>
 MakeJK  time:  CPU       0.20 s  wall       0.21 s
Fock build time:  0.20 s (CPU) 0.21 s (wall)
DIIS Errors:  Max 4.92E-07 RMS 6.20E-08

Current DIIS subspace size = 8
REM_GRID_RESTART_DIIS = 0

    8    -152.8868366853      6.20E-08  00000
Finding J and K together
 Job number = 22, Threshold = 1.00E-11
Integral type ranges set in mkLRange.C for JobNum: 22  <1-6|1-6>
 MakeJK  time:  CPU       0.19 s  wall       0.20 s
Fock build time:  0.19 s (CPU) 0.20 s (wall)
DIIS Errors:  Max 7.71E-08 RMS 1.28E-08

Current DIIS subspace size = 9
REM_GRID_RESTART_DIIS = 0

    9    -152.8868366853      1.28E-08  00000
Finding J and K together
 Job number = 22, Threshold = 1.00E-11
Integral type ranges set in mkLRange.C for JobNum: 22  <1-6|1-6>
 MakeJK  time:  CPU       0.19 s  wall       0.19 s
Fock build time:  0.19 s (CPU) 0.20 s (wall)
DIIS Errors:  Max 2.10E-08 RMS 3.33E-09

Current DIIS subspace size = 10
REM_GRID_RESTART_DIIS = 0

   10    -152.8868366853      3.33E-09  00000 Convergence criterion met
 ---------------------------------------
 SCF time:  CPU 1.62 s  wall 1.71 s
 SCF   energy in the final basis set = -152.88683669
 Total energy in the final basis set = -152.88683669
drvman_main.C: 73: calling DrvMan  Calculating analytic gradient of the SCF energy
drvman.C : 218: Calculating analytic gradient of the SCF energy
drvman.C: 244: calling SCF_Grad for normal SCF gradient
 Job number = 111, Threshold = 1.00E-11
Integral type ranges set in mkLRange.C for JobNum: 11  <1-6|7-7>
Finding J and K together
 ML is being used
 Job number = 122, Threshold = 1.00E-11
Integral type ranges set in mkLRange.C for JobNum: 22  <1-6|1-6>
 MakeJK  time:  CPU       0.50 s  wall       0.51 s
 Gradient of SCF Energy
            1           2           3           4           5           6
    1  -0.1662531   0.1450045   0.0138940   0.0040403  -0.1570748   0.2416061
    2   0.2040677  -0.1351219  -0.0251545  -0.0347577   0.1878346  -0.2208165
    3   0.1808923  -0.0836005  -0.0214749  -0.0458045  -0.1455326   0.1159954
            7           8           9          10
    1  -0.0611214  -0.0226544   0.0040199  -0.0014610
    2   0.0872745  -0.0263168  -0.0017309  -0.0352785
    3   0.0029947   0.0187933  -0.0107345  -0.0115287
 Max gradient component =       2.416E-01
 RMS gradient           =       1.109E-01
drvman.C: 248: out of SCF_Grad for normal SCF gradient
 Gradient time:  CPU 0.52 s  wall 0.54 s
 ------------------------------------------------------------------------------
                     drvman        : Timing summary (seconds)
 ------------------------------------------------------------------------------
     job step          cpu (% of tot)      sys (% of tot)     wall (% of tot)
 ------------------------------------------------------------------------------
 ------------------------------------------------------------------------------
   Grand Totals     0.5240E+00          0.3000E-05          0.5371E+00
 ------------------------------------------------------------------------------
drvman_main.C: 77: out of DrvMan  Time for this dynamics step: 2.2 s (CPU) 2.3 s (wall)

TIME STEP #400 (t = 7980.000 a.u. = 193.02697 fs)
--------------------------------------
 Instantaneous Temperature = 6033.5 K
 ----------------------------------------------------------------
             Standard Nuclear Orientation (Angstroms)
    I     Atom           X                Y                Z
 ----------------------------------------------------------------
    1      C       4.5142593806    -0.0559599853    -0.3603924626
    2      C       3.7128177236     0.6556370616     0.1970337797
    3      H       5.6199756549    -0.0196007967    -0.4324592900
    4      H       4.2456962526    -0.8895169220    -1.1122744027
    5      C       2.2036224351     0.4335610365     0.2184495527
    6      C       1.3299887560     1.0070739839    -0.3780348661
    7      H       0.3657081452     1.4154709592    -0.1849199808
    8      H       1.6006805493     1.6592065879    -1.1192102858
    9      H       3.9933909478     1.5251132560     0.7279512598
   10      H       2.0204385881    -0.4892092848     0.8209969953
 ----------------------------------------------------------------
 Nuclear Repulsion Energy =   107.4333850331 hartrees
 There are       15 alpha and       15 beta electrons

                       Distance Matrix (Angstroms)
             C (  1)   C (  2)   H (  3)   H (  4)   C (  5)   C (  6)
   C (  2)  1.208058
   H (  3)  1.108659  2.118834
   H (  4)  1.154240  2.094218  1.762823
   C (  5)  2.431817  1.525597  3.507208  2.773342
   C (  6)  3.357072  2.476305  4.411464  3.554928  1.203307
   H (  7)  4.405267  3.453459  5.452342  4.607305  2.122447  1.064856
   H (  8)  3.465046  2.683426  4.409621  3.673166  1.911826  1.023666
   H (  9)  1.988866  1.056685  2.525564  3.046396  2.157394  2.930065
   H ( 10)  2.793301  2.136387  3.840358  2.974820  1.117195  2.037955
             H (  7)   H (  8)   H (  9)
   H (  8)  1.567630
   H (  9)  3.742384  3.025731
   H ( 10)  2.716212  2.925114  2.821116

 Applying Cartesian multipole field
    Component          Value
    ---------          -----
     (2,0,0)        1.00000E-12
     (0,2,0)        2.00000E-11
     (0,0,2)       -3.00000E-10
 Nucleus-field energy     =    -0.0000000041 hartrees
 ENuRep (before)= 107.4333850331
 ENucField = -0.0000000041
 ENuRep (after) = 107.4333850290
 Job number = 2, Threshold = 1.00E-11
Integral type ranges set in mkLRange.C for JobNum: 2  <1-6|1-6>
Symmetry turned off temporarily
Symmetry turned back on
 Job number = 11, Threshold = 1.00E-11
Integral type ranges set in mkLRange.C for JobNum: 11  <1-6|7-7>
 Smallest overlap matrix eigenvalue = 1.33E-01
 Multipole matrices computed through 2nd order
 Extrapolating the Fock matrix using 12 points and a 6th-order polynomial
 Alpha Fock matrix extrapolation
 Skip SCF guess (diagonalize extrapolated Fock matrix instead)
 SCF convergence criterion is 10**(-8)
 A restricted Hartree-Fock SCF calculation will be
 performed using Pulay DIIS extrapolation
 SCF converges when DIIS error is below 1.0E-08
Extrapolated Fock matrix used in lieu of Fock build
Fock build time:  0.00 s (CPU) 0.00 s (wall)
DIIS Errors:  Max 1.86E-01 RMS 1.52E-02

Current DIIS subspace size = 1
REM_GRID_RESTART_DIIS = 0

 ---------------------------------------
  Cycle       Energy         DIIS Error
 ---------------------------------------
    1    -312.1237243008      1.52E-02  00000
Finding J and K together
 Job number = 22, Threshold = 1.00E-11
Integral type ranges set in mkLRange.C for JobNum: 22  <1-6|1-6>
 MakeJK  time:  CPU       0.20 s  wall       0.21 s
Fock build time:  0.20 s (CPU) 0.21 s (wall)
DIIS Errors:  Max 5.52E-03 RMS 7.74E-04

Current DIIS subspace size = 2
REM_GRID_RESTART_DIIS = 0

    2    -152.9066471422      7.74E-04  00000
Finding J and K together
 Job number = 22, Threshold = 1.00E-11
Integral type ranges set in mkLRange.C for JobNum: 22  <1-6|1-6>
 MakeJK  time:  CPU       0.18 s  wall       0.18 s
Fock build time:  0.18 s (CPU) 0.18 s (wall)
DIIS Errors:  Max 7.39E-04 RMS 1.07E-04

Current DIIS subspace size = 3
REM_GRID_RESTART_DIIS = 0

    3    -152.9066797949      1.07E-04  00000
Finding J and K together
 Job number = 22, Threshold = 1.00E-11
Integral type ranges set in mkLRange.C for JobNum: 22  <1-6|1-6>
 MakeJK  time:  CPU       0.20 s  wall       0.20 s
Fock build time:  0.20 s (CPU) 0.20 s (wall)
DIIS Errors:  Max 1.94E-04 RMS 2.15E-05

Current DIIS subspace size = 4
REM_GRID_RESTART_DIIS = 0

    4    -152.9066814466      2.15E-05  00000
Finding J and K together
 Job number = 22, Threshold = 1.00E-11
Integral type ranges set in mkLRange.C for JobNum: 22  <1-6|1-6>
 MakeJK  time:  CPU       0.20 s  wall       0.20 s
Fock build time:  0.20 s (CPU) 0.20 s (wall)
DIIS Errors:  Max 2.64E-05 RMS 4.95E-06

Current DIIS subspace size = 5
REM_GRID_RESTART_DIIS = 0

    5    -152.9066815275      4.95E-06  00000
Finding J and K together
 Job number = 22, Threshold = 1.00E-11
Integral type ranges set in mkLRange.C for JobNum: 22  <1-6|1-6>
 MakeJK  time:  CPU       0.19 s  wall       0.20 s
Fock build time:  0.19 s (CPU) 0.20 s (wall)
DIIS Errors:  Max 8.88E-06 RMS 1.30E-06

Current DIIS subspace size = 6
REM_GRID_RESTART_DIIS = 0

    6    -152.9066815313      1.30E-06  00000
Finding J and K together
 Job number = 22, Threshold = 1.00E-11
Integral type ranges set in mkLRange.C for JobNum: 22  <1-6|1-6>
 MakeJK  time:  CPU       0.19 s  wall       0.19 s
Fock build time:  0.19 s (CPU) 0.19 s (wall)
DIIS Errors:  Max 2.87E-06 RMS 4.06E-07

Current DIIS subspace size = 7
REM_GRID_RESTART_DIIS = 0

    7    -152.9066815317      4.06E-07  00000
Finding J and K together
 Job number = 22, Threshold = 1.00E-11
Integral type ranges set in mkLRange.C for JobNum: 22  <1-6|1-6>
 MakeJK  time:  CPU       0.17 s  wall       0.17 s
Fock build time:  0.17 s (CPU) 0.18 s (wall)
DIIS Errors:  Max 6.70E-07 RMS 7.71E-08

Current DIIS subspace size = 8
REM_GRID_RESTART_DIIS = 0

    8    -152.9066815317      7.71E-08  00000
Finding J and K together
 Job number = 22, Threshold = 1.00E-11
Integral type ranges set in mkLRange.C for JobNum: 22  <1-6|1-6>
 MakeJK  time:  CPU       0.18 s  wall       0.20 s
Fock build time:  0.18 s (CPU) 0.20 s (wall)
DIIS Errors:  Max 1.21E-07 RMS 2.40E-08

Current DIIS subspace size = 9
REM_GRID_RESTART_DIIS = 0

    9    -152.9066815317      2.40E-08  00000
Finding J and K together
 Job number = 22, Threshold = 1.00E-11
Integral type ranges set in mkLRange.C for JobNum: 22  <1-6|1-6>
 MakeJK  time:  CPU       0.20 s  wall       0.23 s
Fock build time:  0.20 s (CPU) 0.24 s (wall)
DIIS Errors:  Max 4.01E-08 RMS 6.60E-09

Current DIIS subspace size = 10
REM_GRID_RESTART_DIIS = 0

   10    -152.9066815317      6.60E-09  00000 Convergence criterion met
 ---------------------------------------
 SCF time:  CPU 1.74 s  wall 1.80 s
 SCF   energy in the final basis set = -152.90668153
 Total energy in the final basis set = -152.90668153
drvman_main.C: 73: calling DrvMan  Calculating analytic gradient of the SCF energy
drvman.C : 218: Calculating analytic gradient of the SCF energy
drvman.C: 244: calling SCF_Grad for normal SCF gradient
 Job number = 111, Threshold = 1.00E-11
Integral type ranges set in mkLRange.C for JobNum: 11  <1-6|7-7>
Finding J and K together
 ML is being used
 Job number = 122, Threshold = 1.00E-11
Integral type ranges set in mkLRange.C for JobNum: 22  <1-6|1-6>
 MakeJK  time:  CPU       0.51 s  wall       0.57 s
 Gradient of SCF Energy
            1           2           3           4           5           6
    1  -0.1646888   0.1519092   0.0210585   0.0043293  -0.1600503   0.1488293
    2   0.1792131  -0.1059665  -0.0192202  -0.0321122   0.1753686  -0.1495185
    3   0.1675149  -0.0630009  -0.0185263  -0.0455296  -0.1293228   0.0933817
            7           8           9          10
    1   0.0382623  -0.0386572  -0.0089157   0.0079234
    2   0.0527118  -0.0467679  -0.0188197  -0.0348885
    3  -0.0155595   0.0444531  -0.0211411  -0.0122695
 Max gradient component =       1.792E-01
 RMS gradient           =       9.463E-02
drvman.C: 248: out of SCF_Grad for normal SCF gradient
 Gradient time:  CPU 0.53 s  wall 0.59 s
 ------------------------------------------------------------------------------
                     drvman        : Timing summary (seconds)
 ------------------------------------------------------------------------------
     job step          cpu (% of tot)      sys (% of tot)     wall (% of tot)
 ------------------------------------------------------------------------------
 ------------------------------------------------------------------------------
   Grand Totals     0.5280E+00          0.1000E-05          0.5937E+00
 ------------------------------------------------------------------------------
drvman_main.C: 77: out of DrvMan  Time for this dynamics step: 2.3 s (CPU) 2.4 s (wall)

=============== TIME STEPS COMPLETED ==================

Step-to-Step energy fluctuations, |E(n) - E(n-1)|
Mean: -5.574e-06   Max: 9.661e-03   RMS: 2.132e-03
Overall energy fluctuations, |E(n) - E(0)|
Mean: -1.486e-03   Max: 6.741e-03   RMS: 1.918e-03   RMS(dE)/RMS(dV): 2.965e-02
Kinetic energy fluctuations, |T(n) - V(0)|
Mean: 1.633e-01   Max: 3.044e-01   RMS: 6.346e-02
Potential energy fluctuations, |V(n) - V(0)|
Mean: -1.648e-01   Max: 3.087e-01   RMS: 6.470e-02


 JobOver = TRUE
Archival summary:
1\1\qciep03\JobtypUnspecified\HF\STO-3G\46\jcartus\MonJun1812:22:402018MonJun1812:22:402018\0\\#,JobtypUnspecified,HF,STO-3G,\\0,1\C\H,1,1.1172\C,1,1.20331,2,122.818\H,3,1.02367,1,118.07,2,-161.944,0\H,3,1.06486,1,138.621,2,52.7599,0\C,1,1.5256,2,106.859,3,-173.473,0\H,6,1.05669,1,112.049,2,-112.771,0\C,6,1.20806,1,125.241,2,67.7291,0\H,8,1.10866,6,132.247,1,-178.444,0\H,8,1.15424,6,124.862,1,11.8069,0\\HF=-152.906682\\@

 Total job time:  1038.49s(wall), 1003.84s(cpu) 
 Mon Jun 18 12:22:40 2018

        *************************************************************
        *                                                           *
        *  Thank you very much for using Q-Chem.  Have a nice day.  *
        *                                                           *
        *************************************************************


*** MISSION COMPLETED -- STARFLEET OUT ***

0 sent ACK to 0 
now end server 0 ... 
