Process 0 of 1 is on qciep03 - thread support 0
initial socket setup ...start
initial socket setup ...done 
now start server 0 ... 
qciep03.tugraz.at 127.0.1
Q-Chem Developer Version! Running on 127.0.1.*
                  Welcome to Q-Chem
     A Quantum Leap Into The Future Of Chemistry


 Q-Chem 5.0, Q-Chem, Inc., Pleasanton, CA (2017)

 Yihan Shao,  Zhengting Gan,  E. Epifanovsky,  A. T. B. Gilbert,  M. Wormit,  
 J. Kussmann,  A. W. Lange,  A. Behn,  Jia Deng,  Xintian Feng,  D. Ghosh,  
 M. Goldey,  P. R. Horn,  L. D. Jacobson,  I. Kaliman,  T. Kus,  A. Landau,  
 Jie Liu,  E. I. Proynov,  R. M. Richard,  R. P. Steele,  E. J. Sundstrom,  
 H. L. Woodcock III,  P. M. Zimmerman,  D. Zuev,  B. Albrecht,  E. Alguire,  
 S. A. Baeppler,  D. Barton,  Z. Benda,  Y. A. Bernard,  E. J. Berquist,  
 K. B. Bravaya,  H. Burton,  D. Casanova,  Chun-Min Chang,  Yunqing Chen,  
 A. Chien,  K. D. Closser,  M. P. Coons,  S. Dasgupta,  A. L. Dempwolff,  
 M. Diedenhofen,  Hainam Do,  R. G. Edgar,  Po-Tung Fang,  S. Fatehi,  
 Qingguo Feng,  J. Fosso-Tande,  Qinghui Ge,  A. Ghysels,  G. Gidofalvi,  
 J. Gomes,  J. Gonthier,  A. Gunina,  M. W. D. Hanson-Heine,  
 P. H. P. Harbach,  A. W. Hauser,  J. E. Herr,  E. G. Hohenstein,  
 Z. C. Holden,  Kerwin Hui,  T.-C. Jagau,  Hyunjun Ji,  B. Kaduk,  
 K. Khistyaev,  Jaehoon Kim,  P. Klunzinger,  K. Koh,  D. Kosenkov,  
 L. Koulias,  T. Kowalczyk,  C. M. Krauter,  A. Kunitsa,  Ka Un Lao,  
 A. Laurent,  K. V. Lawler,  Joonho Lee,  D. Lefrancois,  S. Lehtola,  
 D. S. Levine,  Yi-Pei Li,  You-Sheng Lin,  Fenglai Liu,  E. Livshits,  
 A. Luenser,  P. Manohar,  E. Mansoor,  S. F. Manzer,  Shan-Ping Mao,  
 Yuezhi Mao,  N. Mardirossian,  A. V. Marenich,  T. Markovich,  
 L. A. Martinez-Martinez,  S. A. Maurer,  N. J. Mayhall,  S. C. McKenzie,  
 J.-M. Mewes,  A. F. Morrison,  J. W. Mullinax,  K. Nanda,  
 T. S. Nguyen-Beck,  R. Olivares-Amaya,  J. A. Parkhill,  T. M. Perrine,  
 F. Plasser,  S. Prager,  A. Prociuk,  E. Ramos,  D. R. Rehn,  F. Rob,  
 M. Schneider,  N. Sergueev,  S. M. Sharada,  S. Sharma,  D. W. Small,  
 T. Stauch,  T. Stein,  Yu-Chuan Su,  A. J. W. Thom,  A. Tkatchenko,  
 T. Tsuchimochi,  L. Vogt,  O. Vydrov,  M. A. Watson,  J. Wenzel,  
 M. de Wergifosse,  T. A. Wesolowski,  A. White,  J. Witte,  A. Yamada,  
 Jun Yang,  K. Yao,  S. Yeganeh,  S. R. Yost,  Zhi-Qiang You,  A. Zech,  
 Igor Ying Zhang,  Xing Zhang,  Yan Zhao,  Ying Zhu,  B. R. Brooks,  
 G. K. L. Chan,  C. J. Cramer,  M. S. Gordon,  W. J. Hehre,  A. Klamt,  
 M. W. Schmidt,  C. D. Sherrill,  D. G. Truhlar,  A. Aspuru-Guzik,  R. Baer,  
 A. T. Bell,  N. A. Besley,  Jeng-Da Chai,  R. A. DiStasio Jr.,  A. Dreuw,  
 B. D. Dunietz,  T. R. Furlani,  Chao-Ping Hsu,  Yousung Jung,  Jing Kong,  
 D. S. Lambrecht,  WanZhen Liang,  C. Ochsenfeld,  V. A. Rassolov,  
 L. V. Slipchenko,  J. E. Subotnik,  T. Van Voorhis,  J. M. Herbert,  
 A. I. Krylov,  P. M. W. Gill,  M. Head-Gordon

 Contributors to earlier versions of Q-Chem not listed above: 
 R. D. Adamson,  B. Austin,  J. Baker,  G. J. O. Beran,  K. Brandhorst,  
 S. T. Brown,  E. F. C. Byrd,  A. K. Chakraborty,  C.-L. Cheng,  
 Siu Hung Chien,  D. M. Chipman,  D. L. Crittenden,  H. Dachsel,  
 R. J. Doerksen,  A. D. Dutoi,  L. Fusti-Molnar,  W. A. Goddard III,  
 A. Golubeva-Zadorozhnaya,  S. R. Gwaltney,  G. Hawkins,  A. Heyden,  
 S. Hirata,  G. Kedziora,  F. J. Keil,  C. Kelley,  Jihan Kim,  R. A. King,  
 R. Z. Khaliullin,  P. P. Korambath,  W. Kurlancheek,  A. M. Lee,  M. S. Lee,  
 S. V. Levchenko,  Ching Yeh Lin,  D. Liotard,  R. C. Lochan,  I. Lotan,  
 P. E. Maslen,  N. Nair,  D. P. O'Neill,  D. Neuhauser,  E. Neuscamman,  
 C. M. Oana,  R. Olson,  B. Peters,  R. Peverati,  P. A. Pieniazek,  
 Y. M. Rhee,  J. Ritchie,  M. A. Rohrdanz,  E. Rosta,  N. J. Russ,  
 H. F. Schaefer III,  N. E. Schultz,  N. Shenvi,  A. C. Simmonett,  A. Sodt,  
 D. Stuck,  K. S. Thanthiriwatte,  V. Vanovschi,  Tao Wang,  A. Warshel,  
 C. F. Williams,  Q. Wu,  X. Xu,  W. Zhang

 Please cite Q-Chem as follows:
 Y. Shao et al., Mol. Phys. 113, 184-215 (2015)
 DOI: 10.1080/00268976.2014.952696

 Q-Chem 5.0.2 for Intel X86 EM64T Linux

 Parts of Q-Chem use Armadillo 5.200.1 (Boston Tea Smuggler).
 http://arma.sourceforge.net/

 Q-Chem begins on Mon Jun 18 12:28:48 2018  


Host: 0

     Scratch files written to /home/jcartus/scratch/Butadien_18.mol.dir//
 Using version located at /usr/local/qchem/bin/qchem

 Parallel job on  1  processors
Symmetry disabled for AIMD jobs.

Total Memory Limit in MB = 2000
Mega-Array Size in MB = 192

Checking the input file for inconsistencies... 	...done.
Finally everything over in PARseQInput

--------------------------------------------------------------
User input:
--------------------------------------------------------------
$rem
AIMD_STEPS                    400
FOCK_EXTRAP_POINTS            12
MAX_SCF_CYCLES                100
BASIS                         sto-3g
AIMD_INIT_VELOC               thermal
FOCK_EXTRAP_ORDER             6
AIMD_TEMP                     400
AIMD_METHOD                   bomd
TIME_STEP                     20
METHOD                        hf
JOBTYPE                       aimd
$end

$molecule
0 1
C    4.55565    0.06376    0.52602
C    3.53603    0.85052    -0.16780
H    5.28465    1.31756    0.78717
H    5.18848    -1.20415    0.35045
C    2.27409    -0.07831    0.14134
C    0.82047    1.19212    -0.63454
H    0.99141    2.08070    -1.39667
H    -0.20140    0.30044    -0.44289
H    3.60257    1.73308    -1.06844
H    2.33540    -1.13929    0.69424
$end


--------------------------------------------------------------
 ----------------------------------------------------------------
             Standard Nuclear Orientation (Angstroms)
    I     Atom           X                Y                Z
 ----------------------------------------------------------------
    1      C       4.5556500000     0.0637600000     0.5260200000
    2      C       3.5360300000     0.8505200000    -0.1678000000
    3      H       5.2846500000     1.3175600000     0.7871700000
    4      H       5.1884800000    -1.2041500000     0.3504500000
    5      C       2.2740900000    -0.0783100000     0.1413400000
    6      C       0.8204700000     1.1921200000    -0.6345400000
    7      H       0.9914100000     2.0807000000    -1.3966700000
    8      H      -0.2014000000     0.3004400000    -0.4428900000
    9      H       3.6025700000     1.7330800000    -1.0684400000
   10      H       2.3354000000    -1.1392900000     0.6942400000
 ----------------------------------------------------------------
 Nuclear Repulsion Energy =    89.3964748952 hartrees
 There are       15 alpha and       15 beta electrons
 Requested basis set is STO-3G
 There are 14 shells and 26 basis functions

 Total QAlloc Memory Limit   2000 MB
 Mega-Array Size       188 MB
 MEM_STATIC part       192 MB

finished with qalloc call

                       Distance Matrix (Angstroms)
             C (  1)   C (  2)   H (  3)   H (  4)   C (  5)   C (  6)
   C (  2)  1.462875
   H (  3)  1.473654  2.046403
   H (  4)  1.427899  2.687163  2.561053
   C (  5)  2.318120  1.597118  3.380684  3.131280
   C (  6)  4.070831  2.776473  4.686779  5.078565  2.080623
   H (  7)  4.524223  3.081973  4.876828  5.608749  2.944837  1.183063
   H (  8)  4.860486  3.787697  5.713521  5.651901  2.571542  1.369687
   H (  9)  2.497457  1.262732  2.538767  3.627076  2.551384  2.867226
   H ( 10)  2.530837  2.478703  3.839638  2.874450  1.197972  3.081581
             H (  7)   H (  8)   H (  9)
   H (  8)  2.345595
   H (  9)  2.654568  4.112658
   H ( 10)  4.067745  3.130693  3.600454

 Job number = 2, Threshold = 1.00E-11
Integral type ranges set in mkLRange.C for JobNum: 2  <1-6|1-6>
Symmetry turned off temporarily
 Using the largest function pair in Schwarz integrals
Total number of integrals generated =            3251
Symmetry turned back on
 A cutoff of  1.0D-11 yielded    101 shell pairs
 There are       371 function pairs
 Job number = 11, Threshold = 1.00E-11
Integral type ranges set in mkLRange.C for JobNum: 11  <1-6|7-7>
Total number of integrals generated =            3710
 Smallest overlap matrix eigenvalue = 2.61E-01
 Multipole matrices computed through 2nd order

 Scale SEOQF with 1.000000e-02/1.000000e-01/1.000000e+00

 Standard Electronic Orientation quadrupole field applied
 Nucleus-field energy     =    -0.0000000066 hartrees
 ENuRep (before)= 89.3964748952
 ENucField = -0.0000000066
 ENuRep (after) = 89.3964748886
 Guess from superposition of atomic densities
 Warning:  Energy on first SCF cycle will be non-variational
 SAD guess density has 30.000000 electrons

 ==================================================
    GEN_SCFMAN: A general SCF calculation manager  
                                                   
    Authors:                                       
        -- Eric Jon Sundstrom 2008-2014            
        -- Paul Horn 2010-2015                     
        -- Yuezhi Mao 2012-                        
        -- Dmitri Zuev 2014                        
        -- Alec White 2015-                        
        -- David Stuck 2015                        
        -- Shaama M.S. 2015                        
        -- Shane Yost 2015-                         
        -- Joonho Lee 2016-                        
        -- David Small 2016-                       
        -- Daniel Levine 2016-                     
        -- Susi Lehtola 2017-                      
        -- Hugh Burton 2017-                       
 ==================================================
 Hartree-Fock
Finding J and K together
 Job number = 22, Threshold = 1.00E-11
Integral type ranges set in mkLRange.C for JobNum: 22  <1-6|1-6>
 MakeJK  time:  CPU       0.15 s  wall       0.15 s
 A restricted SCF calculation will be
 performed using DIIS
 SCF converges when DIIS error is below 1.0e-08
 ---------------------------------------
  Cycle       Energy         DIIS error
 ---------------------------------------
Finding J and K together
 Job number = 22, Threshold = 1.00E-11
Integral type ranges set in mkLRange.C for JobNum: 22  <1-6|1-6>
 MakeJK  time:  CPU       0.18 s  wall       0.18 s
    1    -150.6977592061      1.27e-01  
Finding J and K together
 Job number = 22, Threshold = 1.00E-11
Integral type ranges set in mkLRange.C for JobNum: 22  <1-6|1-6>
 MakeJK  time:  CPU       0.18 s  wall       0.18 s
    2    -152.2134153266      1.49e-02  
Finding J and K together
 Job number = 22, Threshold = 1.00E-11
Integral type ranges set in mkLRange.C for JobNum: 22  <1-6|1-6>
 MakeJK  time:  CPU       0.13 s  wall       0.13 s
    3    -152.2442508110      1.35e-02  
Finding J and K together
 Job number = 22, Threshold = 1.00E-11
Integral type ranges set in mkLRange.C for JobNum: 22  <1-6|1-6>
 MakeJK  time:  CPU       0.19 s  wall       0.21 s
    4    -152.2617587322      9.34e-03  
Finding J and K together
 Job number = 22, Threshold = 1.00E-11
Integral type ranges set in mkLRange.C for JobNum: 22  <1-6|1-6>
 MakeJK  time:  CPU       0.15 s  wall       0.15 s
    5    -152.2744722038      2.40e-03  
Finding J and K together
 Job number = 22, Threshold = 1.00E-11
Integral type ranges set in mkLRange.C for JobNum: 22  <1-6|1-6>
 MakeJK  time:  CPU       0.13 s  wall       0.13 s
    6    -152.2762578227      1.85e-03  
Finding J and K together
 Job number = 22, Threshold = 1.00E-11
Integral type ranges set in mkLRange.C for JobNum: 22  <1-6|1-6>
 MakeJK  time:  CPU       0.17 s  wall       0.17 s
    7    -152.2779893963      1.62e-03  
Finding J and K together
 Job number = 22, Threshold = 1.00E-11
Integral type ranges set in mkLRange.C for JobNum: 22  <1-6|1-6>
 MakeJK  time:  CPU       0.18 s  wall       0.18 s
    8    -152.2791987745      1.57e-03  
Finding J and K together
 Job number = 22, Threshold = 1.00E-11
Integral type ranges set in mkLRange.C for JobNum: 22  <1-6|1-6>
 MakeJK  time:  CPU       0.18 s  wall       0.18 s
    9    -152.2808847875      1.47e-03  
Finding J and K together
 Job number = 22, Threshold = 1.00E-11
Integral type ranges set in mkLRange.C for JobNum: 22  <1-6|1-6>
 MakeJK  time:  CPU       0.18 s  wall       0.18 s
   10    -152.2857320410      8.08e-04  
Finding J and K together
 Job number = 22, Threshold = 1.00E-11
Integral type ranges set in mkLRange.C for JobNum: 22  <1-6|1-6>
 MakeJK  time:  CPU       0.18 s  wall       0.18 s
   11    -152.2853844179      6.77e-04  
Finding J and K together
 Job number = 22, Threshold = 1.00E-11
Integral type ranges set in mkLRange.C for JobNum: 22  <1-6|1-6>
 MakeJK  time:  CPU       0.15 s  wall       0.15 s
   12    -152.2859197319      1.53e-04  
Finding J and K together
 Job number = 22, Threshold = 1.00E-11
Integral type ranges set in mkLRange.C for JobNum: 22  <1-6|1-6>
 MakeJK  time:  CPU       0.17 s  wall       0.17 s
   13    -152.2858503348      4.12e-04  
Finding J and K together
 Job number = 22, Threshold = 1.00E-11
Integral type ranges set in mkLRange.C for JobNum: 22  <1-6|1-6>
 MakeJK  time:  CPU       0.16 s  wall       0.16 s
   14    -152.2859545302      1.47e-04  
Finding J and K together
 Job number = 22, Threshold = 1.00E-11
Integral type ranges set in mkLRange.C for JobNum: 22  <1-6|1-6>
 MakeJK  time:  CPU       0.13 s  wall       0.13 s
   15    -152.2859574808      2.19e-04  
Finding J and K together
 Job number = 22, Threshold = 1.00E-11
Integral type ranges set in mkLRange.C for JobNum: 22  <1-6|1-6>
 MakeJK  time:  CPU       0.17 s  wall       0.17 s
   16    -152.2859640910      2.54e-04  
Finding J and K together
 Job number = 22, Threshold = 1.00E-11
Integral type ranges set in mkLRange.C for JobNum: 22  <1-6|1-6>
 MakeJK  time:  CPU       0.16 s  wall       0.16 s
   17    -152.2860042200      4.43e-05  
Finding J and K together
 Job number = 22, Threshold = 1.00E-11
Integral type ranges set in mkLRange.C for JobNum: 22  <1-6|1-6>
 MakeJK  time:  CPU       0.16 s  wall       0.16 s
   18    -152.2860048808      2.58e-05  
Finding J and K together
 Job number = 22, Threshold = 1.00E-11
Integral type ranges set in mkLRange.C for JobNum: 22  <1-6|1-6>
 MakeJK  time:  CPU       0.17 s  wall       0.17 s
   19    -152.2860052083      1.47e-05  
Finding J and K together
 Job number = 22, Threshold = 1.00E-11
Integral type ranges set in mkLRange.C for JobNum: 22  <1-6|1-6>
 MakeJK  time:  CPU       0.17 s  wall       0.17 s
   20    -152.2860053217      3.49e-06  
Finding J and K together
 Job number = 22, Threshold = 1.00E-11
Integral type ranges set in mkLRange.C for JobNum: 22  <1-6|1-6>
 MakeJK  time:  CPU       0.14 s  wall       0.14 s
   21    -152.2860053281      8.28e-07  
Finding J and K together
 Job number = 22, Threshold = 1.00E-11
Integral type ranges set in mkLRange.C for JobNum: 22  <1-6|1-6>
 MakeJK  time:  CPU       0.18 s  wall       0.18 s
   22    -152.2860053285      1.11e-07  
Finding J and K together
 Job number = 22, Threshold = 1.00E-11
Integral type ranges set in mkLRange.C for JobNum: 22  <1-6|1-6>
 MakeJK  time:  CPU       0.16 s  wall       0.15 s
   23    -152.2860053285      5.37e-08  
Finding J and K together
 Job number = 22, Threshold = 1.00E-11
Integral type ranges set in mkLRange.C for JobNum: 22  <1-6|1-6>
 MakeJK  time:  CPU       0.16 s  wall       0.16 s
   24    -152.2860053285      1.32e-08  
   25    -152.2860053285      2.48e-09  Convergence criterion met
 ---------------------------------------
 SCF time:   CPU 4.10s  wall 4.00s 
 Total energy in the final basis set =     -152.2860053285
Wall  1 = 4
Clock 1 = 4.1043090820
 ==================================================
                  Done GEN_SCFMAN                  
 ==================================================

Symmetry turned off temporarily

 --------------------------------------------------------------

                    Orbital Energies (a.u.)
 --------------------------------------------------------------

 Alpha MOs
 -- Occupied --
-11.061 -11.043 -11.021 -10.874  -0.970  -0.770  -0.670  -0.654
 -0.508  -0.496  -0.423  -0.394  -0.288  -0.237  -0.117
 -- Virtual --
  0.131   0.250   0.333   0.355   0.435   0.467   0.524   0.597
  0.711   0.767   0.850
 --------------------------------------------------------------

          Ground-State Mulliken Net Atomic Charges

     Atom                 Charge (a.u.)
  ----------------------------------------
      1 C                    -0.024844
      2 C                    -0.054263
      3 H                    -0.020302
      4 H                     0.121838
      5 C                    -0.022276
      6 C                    -0.173028
      7 H                     0.034773
      8 H                    -0.021286
      9 H                     0.103112
     10 H                     0.056275
  ----------------------------------------
  Sum of atomic charges =    -0.000000

 -----------------------------------------------------------------
                    Cartesian Multipole Moments
 -----------------------------------------------------------------
    Charge (ESU x 10^10)
                -0.0000
    Dipole Moment (Debye)
         X       3.7528      Y      -1.9320      Z      -0.0867
       Tot       4.2218
    Quadrupole Moments (Debye-Ang)
        XX      -6.8788     XY      -3.7918     YY     -22.3432
        XZ      -0.7160     YZ      -2.5451     ZZ     -23.3942
    Octopole Moments (Debye-Ang^2)
       XXX    -130.6287    XXY     -30.8243    XYY     -54.1423
       YYY     -38.6109    XXZ      -2.7967    XYZ      -6.7670
       YYZ      -2.4541    XZZ     -65.6348    YZZ     -10.0584
       ZZZ       3.6578
    Hexadecapole Moments (Debye-Ang^3)
      XXXX   -1190.9868   XXXY    -182.5850   XXYY    -210.3143
      XYYY     -75.7982   YYYY    -128.4908   XXXZ     -51.9469
      XXYZ     -15.2894   XYYZ     -17.2299   YYYZ      12.9542
      XXZZ    -258.9593   XYZZ     -19.4916   YYZZ     -26.0398
      XZZZ     -35.1686   YZZZ      20.2443   ZZZZ     -61.5495
 -----------------------------------------------------------------
drvman_main.C: 73: calling DrvMan  Calculating analytic gradient of the SCF energy
drvman.C : 218: Calculating analytic gradient of the SCF energy
drvman.C: 244: calling SCF_Grad for normal SCF gradient
 Job number = 111, Threshold = 1.00E-11
Integral type ranges set in mkLRange.C for JobNum: 11  <1-6|7-7>
Finding J and K together
 ML is being used
 Job number = 122, Threshold = 1.00E-11
Integral type ranges set in mkLRange.C for JobNum: 22  <1-6|1-6>
Total number of integrals generated =           69271
 MakeJK  time:  CPU       0.43 s  wall       0.50 s
 Gradient of SCF Energy
            1           2           3           4           5           6
    1  -0.1039306   0.0141681   0.0133972   0.0783572   0.0655097   0.0374464
    2  -0.1717765   0.1862549   0.1419123  -0.1222950  -0.1288037   0.1227356
    3   0.0648734  -0.0132913   0.0118854  -0.0356810   0.1340709  -0.1005780
            7           8           9          10
    1  -0.0090386  -0.0940629   0.0075338  -0.0093803
    2   0.0769376  -0.0954937   0.0570160  -0.0664873
    3  -0.0264892   0.0425311  -0.1002294   0.0229081
 Max gradient component =       1.863E-01
 RMS gradient           =       8.808E-02
drvman.C: 248: out of SCF_Grad for normal SCF gradient
 Gradient time:  CPU 0.44 s  wall 0.52 s
 ------------------------------------------------------------------------------
                     drvman        : Timing summary (seconds)
 ------------------------------------------------------------------------------
     job step          cpu (% of tot)      sys (% of tot)     wall (% of tot)
 ------------------------------------------------------------------------------
 ------------------------------------------------------------------------------
   Grand Totals     0.4440E+00          0.1000E-05          0.5236E+00
 ------------------------------------------------------------------------------
drvman_main.C: 77: out of DrvMan =======================================================
            AB INITIO MOLECULAR DYNAMICS
=======================================================
Created directory /home/jcartus/scratch/Butadien_18.mol.dir/AIMD
AIMD will take 400 BOMD steps Velocity Verlet integration
Time step = 20.00000 a.u. ( = 0.48378 fs)
Total simulation time requested = 193.511 fs
Integral threshold = 10**(-11)
SCF convergence threshold = 10**(-8)
Generating viewable xyz trajectory,
 file (in Angstroms) at AIMD/View.xyz
Choosing nuclear velocities from Maxwell-Boltzmann
Velocities sampled from Maxwell-Boltzmann at T = 400.0 K
sqrt(kT/m) and (vx,vy,vz) for each atom:
  1   2.4064e-04   9.86e-05  -1.01e-04   2.05e-04 
  2   2.4064e-04   2.46e-04  -6.33e-05  -2.12e-04 
  3   8.3036e-04  -7.79e-04   3.40e-04   5.11e-04 
  4   8.3036e-04  -3.92e-04  -3.14e-04  -2.76e-05 
  5   2.4064e-04   5.78e-05   8.71e-05   9.62e-05 
  6   2.4064e-04  -3.09e-04   2.62e-04  -2.08e-04 
  7   8.3036e-04   5.17e-04  -9.82e-04   2.13e-03 
  8   8.3036e-04   7.27e-04  -1.86e-03   9.57e-04 
  9   8.3036e-04  -7.30e-04  -6.41e-04   1.18e-03 
 10   8.3036e-04  -1.63e-04   1.18e-04   6.35e-05 
T(nuclear) = 0.01748156 a.u.
v(c.o.m.) = (  5.5464e-06,  -2.1256e-05,   6.3258e-05)
T(c.o.m.) = 2.20891e-04 a.u.
kT/2 = 0.000633 a.u.
Tx   = 0.003792 a.u.
Ty   = 0.005633 a.u.
Tz   = 0.008057 a.u.
Mean velocities (a.u.):  -7.2592e-05  -3.1526e-04   4.6926e-04
Removing c.o.m. velocity
T(nuclear) = 0.01468702 a.u.
v(c.o.m.) = ( -2.0847e-20,   4.5075e-21,  -3.3806e-21)
T(c.o.m.) = 2.29732e-35 a.u.
kT   = 0.001267 a.u. = 0.79 kcal/mol
Tx   = 0.003837 a.u. = 2.41 kcal/mol
Ty   = 0.005048 a.u. = 3.17 kcal/mol
Tz   = 0.005802 a.u. = 3.64 kcal/mol
Initial velocities in m/s
  1      2.1018e+02     -2.0028e+02      3.8542e+02 
  2      5.3303e+02     -1.1762e+02     -5.2629e+02 
  3     -1.7689e+03      9.9298e+02      3.7478e+02 
  4     -9.2203e+02     -4.3704e+02     -8.0255e+02 
  5      1.2097e+02      2.1155e+02      1.4808e+02 
  6     -6.8076e+02      5.9383e+02     -5.1734e+02 
  7      1.0668e+03     -1.8989e+03      3.9233e+03 
  8      1.5255e+03     -3.8155e+03      1.3519e+03 
  9     -1.6632e+03     -1.1533e+03      1.8298e+03 
 10     -4.2200e+02      5.0741e+02     -6.0319e+02 
----------------------------------------------------------------------------
       Nuclear coordinates (Angst) and velocities (a.u.)
----------------------------------------------------------------------------
             x        y        z            v_x         v_y        v_z
----------------------------------------------------------------------------
1      C    4.5556   0.0638   0.5260     9.6072e-05  -9.1550e-05   1.7618e-04
2      C    3.5360   0.8505  -0.1678     2.4365e-04  -5.3766e-05  -2.4057e-04
3      H    5.2847   1.3176   0.7872    -8.0856e-04   4.5389e-04   1.7131e-04
4      H    5.1885  -1.2042   0.3504    -4.2146e-04  -1.9977e-04  -3.6685e-04
5      C    2.2741  -0.0783   0.1413     5.5294e-05   9.6702e-05   6.7689e-05
6      C    0.8205   1.1921  -0.6345    -3.1118e-04   2.7144e-04  -2.3648e-04
7      H    0.9914   2.0807  -1.3967     4.8764e-04  -8.6798e-04   1.7933e-03
8      H   -0.2014   0.3004  -0.4429     6.9732e-04  -1.7441e-03   6.1794e-04
9      H    3.6026   1.7331  -1.0684    -7.6024e-04  -5.2718e-04   8.3642e-04
10     H    2.3354  -1.1393   0.6942    -1.9290e-04   2.3194e-04  -2.7572e-04
----------------------------------------------------------------------------
Write nuclear velocities every 1 time steps

TIME STEP #1 (t = 0.000 a.u. = 0.00000 fs)
--------------------------------------
 Instantaneous Temperature = 309.2 K
 ----------------------------------------------------------------
             Standard Nuclear Orientation (Angstroms)
    I     Atom           X                Y                Z
 ----------------------------------------------------------------
    1      C       4.5571696285     0.0636221811     0.5275707043
    2      C       3.5385401064     0.8490498184    -0.1702817757
    3      H       5.2753207377     1.3141884906     0.7882984003
    4      H       5.1795054070    -1.1992191213     0.3486229750
    5      C       2.2743582576    -0.0766633653     0.1414077137
    6      C       0.8169954498     1.1943989751    -0.6365561423
    7      H       0.9970916316     2.0670814719    -1.3761642263
    8      H      -0.1886010937     0.2874829412    -0.4388001301
    9      H       3.5940899598     1.7242160152    -1.0538136682
   10      H       2.3338988198    -1.1330050389     0.6900021951
 ----------------------------------------------------------------
 Nuclear Repulsion Energy =    89.5608098357 hartrees
 There are       15 alpha and       15 beta electrons

                       Distance Matrix (Angstroms)
             C (  1)   C (  2)   H (  3)   H (  4)   C (  5)   C (  6)
   C (  2)  1.463387
   H (  3)  1.465482  2.037557
   H (  4)  1.419187  2.675338  2.553373
   C (  5)  2.319489  1.597577  3.370269  3.121370
   C (  6)  4.077101  2.782711  4.682011  5.072620  2.084402
   H (  7)  4.506907  3.065406  4.853348  5.579982  2.920629  1.158028
   H (  8)  4.848332  3.778762  5.693359  5.625556  2.556445  1.368513
   H (  9)  2.487141  1.244841  2.527457  3.609272  2.532472  2.857808
   H ( 10)  2.530066  2.473821  3.827582  2.866775  1.191788  3.078565
             H (  7)   H (  8)   H (  9)
   H (  8)  2.334843
   H (  9)  2.639293  4.092822
   H ( 10)  4.036911  3.107247  3.576687

 Applying Cartesian multipole field
    Component          Value
    ---------          -----
     (2,0,0)        1.00000E-12
     (0,2,0)        2.00000E-11
     (0,0,2)       -3.00000E-10
 Nucleus-field energy     =    -0.0000000066 hartrees
 ENuRep (before)= 89.5608098357
 ENucField = -0.0000000066
 ENuRep (after) = 89.5608098291
 Job number = 2, Threshold = 1.00E-11
Integral type ranges set in mkLRange.C for JobNum: 2  <1-6|1-6>
Symmetry turned off temporarily
Symmetry turned back on
 Job number = 11, Threshold = 1.00E-11
Integral type ranges set in mkLRange.C for JobNum: 11  <1-6|7-7>
 Smallest overlap matrix eigenvalue = 2.61E-01
 Multipole matrices computed through 2nd order
 Guess from superposition of atomic densities
 Warning:  Energy on first SCF cycle will be non-variational
 SAD guess density has 30.000000 electrons
 SCF convergence criterion is 10**(-8)
 A restricted Hartree-Fock SCF calculation will be
 performed using Pulay DIIS extrapolation
 SCF converges when DIIS error is below 1.0E-08
Finding J and K together
 Job number = 22, Threshold = 1.00E-11
Integral type ranges set in mkLRange.C for JobNum: 22  <1-6|1-6>
 MakeJK  time:  CPU       0.14 s  wall       0.15 s
Fock build time:  0.14 s (CPU) 0.15 s (wall)
DIIS Errors:  Max 8.41E-01 RMS 1.28E-01

Current DIIS subspace size = 1
REM_GRID_RESTART_DIIS = 0

 ---------------------------------------
  Cycle       Energy         DIIS Error
 ---------------------------------------
    1    -150.7337111773      1.28E-01  00000
Finding J and K together
 Job number = 22, Threshold = 1.00E-11
Integral type ranges set in mkLRange.C for JobNum: 22  <1-6|1-6>
 MakeJK  time:  CPU       0.13 s  wall       0.13 s
Fock build time:  0.13 s (CPU) 0.13 s (wall)
DIIS Errors:  Max 7.73E-02 RMS 1.53E-02

Current DIIS subspace size = 2
REM_GRID_RESTART_DIIS = 0

    2    -152.2227624377      1.53E-02  00000
Finding J and K together
 Job number = 22, Threshold = 1.00E-11
Integral type ranges set in mkLRange.C for JobNum: 22  <1-6|1-6>
 MakeJK  time:  CPU       0.16 s  wall       0.16 s
Fock build time:  0.16 s (CPU) 0.16 s (wall)
DIIS Errors:  Max 8.00E-02 RMS 1.49E-02

Current DIIS subspace size = 3
REM_GRID_RESTART_DIIS = 0

    3    -152.2487770434      1.49E-02  00000
Finding J and K together
 Job number = 22, Threshold = 1.00E-11
Integral type ranges set in mkLRange.C for JobNum: 22  <1-6|1-6>
 MakeJK  time:  CPU       0.17 s  wall       0.17 s
Fock build time:  0.17 s (CPU) 0.17 s (wall)
DIIS Errors:  Max 5.84E-02 RMS 9.10E-03

Current DIIS subspace size = 4
REM_GRID_RESTART_DIIS = 0

    4    -152.2718847723      9.10E-03  00000
Finding J and K together
 Job number = 22, Threshold = 1.00E-11
Integral type ranges set in mkLRange.C for JobNum: 22  <1-6|1-6>
 MakeJK  time:  CPU       0.18 s  wall       0.18 s
Fock build time:  0.18 s (CPU) 0.18 s (wall)
DIIS Errors:  Max 1.77E-02 RMS 2.52E-03

Current DIIS subspace size = 5
REM_GRID_RESTART_DIIS = 0

    5    -152.2841903595      2.52E-03  00000
Finding J and K together
 Job number = 22, Threshold = 1.00E-11
Integral type ranges set in mkLRange.C for JobNum: 22  <1-6|1-6>
 MakeJK  time:  CPU       0.18 s  wall       0.18 s
Fock build time:  0.18 s (CPU) 0.18 s (wall)
DIIS Errors:  Max 1.57E-02 RMS 1.99E-03

Current DIIS subspace size = 6
REM_GRID_RESTART_DIIS = 0

    6    -152.2860755999      1.99E-03  00000
Finding J and K together
 Job number = 22, Threshold = 1.00E-11
Integral type ranges set in mkLRange.C for JobNum: 22  <1-6|1-6>
 MakeJK  time:  CPU       0.18 s  wall       0.19 s
Fock build time:  0.18 s (CPU) 0.19 s (wall)
DIIS Errors:  Max 1.59E-02 RMS 1.77E-03

Current DIIS subspace size = 7
REM_GRID_RESTART_DIIS = 0

    7    -152.2880178979      1.77E-03  00000
Finding J and K together
 Job number = 22, Threshold = 1.00E-11
Integral type ranges set in mkLRange.C for JobNum: 22  <1-6|1-6>
 MakeJK  time:  CPU       0.18 s  wall       0.18 s
Fock build time:  0.18 s (CPU) 0.18 s (wall)
DIIS Errors:  Max 1.49E-02 RMS 1.70E-03

Current DIIS subspace size = 8
REM_GRID_RESTART_DIIS = 0

    8    -152.2893664184      1.70E-03  00000
Finding J and K together
 Job number = 22, Threshold = 1.00E-11
Integral type ranges set in mkLRange.C for JobNum: 22  <1-6|1-6>
 MakeJK  time:  CPU       0.18 s  wall       0.18 s
Fock build time:  0.18 s (CPU) 0.18 s (wall)
DIIS Errors:  Max 1.36E-02 RMS 1.55E-03

Current DIIS subspace size = 9
REM_GRID_RESTART_DIIS = 0

    9    -152.2916715990      1.55E-03  00000
Finding J and K together
 Job number = 22, Threshold = 1.00E-11
Integral type ranges set in mkLRange.C for JobNum: 22  <1-6|1-6>
 MakeJK  time:  CPU       0.18 s  wall       0.18 s
Fock build time:  0.18 s (CPU) 0.18 s (wall)
DIIS Errors:  Max 1.27E-02 RMS 1.59E-03

Current DIIS subspace size = 10
REM_GRID_RESTART_DIIS = 0

   10    -152.2957154485      1.59E-03  00000
Finding J and K together
 Job number = 22, Threshold = 1.00E-11
Integral type ranges set in mkLRange.C for JobNum: 22  <1-6|1-6>
 MakeJK  time:  CPU       0.17 s  wall       0.17 s
Fock build time:  0.17 s (CPU) 0.17 s (wall)
DIIS Errors:  Max 7.78E-03 RMS 9.25E-04

Current DIIS subspace size = 11
REM_GRID_RESTART_DIIS = 0

   11    -152.2956618625      9.25E-04  00000
Finding J and K together
 Job number = 22, Threshold = 1.00E-11
Integral type ranges set in mkLRange.C for JobNum: 22  <1-6|1-6>
 MakeJK  time:  CPU       0.14 s  wall       0.14 s
Fock build time:  0.14 s (CPU) 0.14 s (wall)
DIIS Errors:  Max 1.30E-03 RMS 1.61E-04

Current DIIS subspace size = 12
REM_GRID_RESTART_DIIS = 0

   12    -152.2965234161      1.61E-04  00000
Finding J and K together
 Job number = 22, Threshold = 1.00E-11
Integral type ranges set in mkLRange.C for JobNum: 22  <1-6|1-6>
 MakeJK  time:  CPU       0.18 s  wall       0.18 s
Fock build time:  0.18 s (CPU) 0.18 s (wall)
DIIS Errors:  Max 1.18E-03 RMS 1.71E-04

Current DIIS subspace size = 13
REM_GRID_RESTART_DIIS = 0

   13    -152.2965589228      1.71E-04  00000
Finding J and K together
 Job number = 22, Threshold = 1.00E-11
Integral type ranges set in mkLRange.C for JobNum: 22  <1-6|1-6>
 MakeJK  time:  CPU       0.18 s  wall       0.18 s
Fock build time:  0.18 s (CPU) 0.18 s (wall)
DIIS Errors:  Max 4.07E-04 RMS 6.86E-05

Current DIIS subspace size = 14
REM_GRID_RESTART_DIIS = 0

   14    -152.2965742108      6.86E-05  00000
Finding J and K together
 Job number = 22, Threshold = 1.00E-11
Integral type ranges set in mkLRange.C for JobNum: 22  <1-6|1-6>
 MakeJK  time:  CPU       0.18 s  wall       0.18 s
Fock build time:  0.18 s (CPU) 0.18 s (wall)
DIIS Errors:  Max 1.22E-03 RMS 1.58E-04

Current DIIS subspace size = 15
REM_GRID_RESTART_DIIS = 0

   15    -152.2965671998      1.58E-04  00000
Finding J and K together
 Job number = 22, Threshold = 1.00E-11
Integral type ranges set in mkLRange.C for JobNum: 22  <1-6|1-6>
 MakeJK  time:  CPU       0.19 s  wall       0.19 s
Fock build time:  0.19 s (CPU) 0.19 s (wall)
DIIS Errors:  Max 9.86E-04 RMS 1.27E-04

Current DIIS subspace size = 15
REM_GRID_RESTART_DIIS = 0

   16    -152.2965775080      1.27E-04  00000
Finding J and K together
 Job number = 22, Threshold = 1.00E-11
Integral type ranges set in mkLRange.C for JobNum: 22  <1-6|1-6>
 MakeJK  time:  CPU       0.18 s  wall       0.18 s
Fock build time:  0.18 s (CPU) 0.18 s (wall)
DIIS Errors:  Max 2.95E-04 RMS 3.78E-05

Current DIIS subspace size = 15
REM_GRID_RESTART_DIIS = 0

   17    -152.2965909381      3.78E-05  00000
Finding J and K together
 Job number = 22, Threshold = 1.00E-11
Integral type ranges set in mkLRange.C for JobNum: 22  <1-6|1-6>
 MakeJK  time:  CPU       0.18 s  wall       0.20 s
Fock build time:  0.19 s (CPU) 0.20 s (wall)
DIIS Errors:  Max 1.58E-04 RMS 2.11E-05

Current DIIS subspace size = 15
REM_GRID_RESTART_DIIS = 0

   18    -152.2965918452      2.11E-05  00000
Finding J and K together
 Job number = 22, Threshold = 1.00E-11
Integral type ranges set in mkLRange.C for JobNum: 22  <1-6|1-6>
 MakeJK  time:  CPU       0.17 s  wall       0.18 s
Fock build time:  0.17 s (CPU) 0.18 s (wall)
DIIS Errors:  Max 5.40E-05 RMS 6.35E-06

Current DIIS subspace size = 15
REM_GRID_RESTART_DIIS = 0

   19    -152.2965920569      6.35E-06  00000
Finding J and K together
 Job number = 22, Threshold = 1.00E-11
Integral type ranges set in mkLRange.C for JobNum: 22  <1-6|1-6>
 MakeJK  time:  CPU       0.18 s  wall       0.18 s
Fock build time:  0.18 s (CPU) 0.18 s (wall)
DIIS Errors:  Max 2.85E-05 RMS 3.38E-06

Current DIIS subspace size = 15
REM_GRID_RESTART_DIIS = 0

   20    -152.2965920742      3.38E-06  00000
Finding J and K together
 Job number = 22, Threshold = 1.00E-11
Integral type ranges set in mkLRange.C for JobNum: 22  <1-6|1-6>
 MakeJK  time:  CPU       0.14 s  wall       0.15 s
Fock build time:  0.14 s (CPU) 0.15 s (wall)
DIIS Errors:  Max 1.11E-05 RMS 1.52E-06

Current DIIS subspace size = 15
REM_GRID_RESTART_DIIS = 0

   21    -152.2965920800      1.52E-06  00000
Finding J and K together
 Job number = 22, Threshold = 1.00E-11
Integral type ranges set in mkLRange.C for JobNum: 22  <1-6|1-6>
 MakeJK  time:  CPU       0.12 s  wall       0.13 s
Fock build time:  0.12 s (CPU) 0.13 s (wall)
DIIS Errors:  Max 5.12E-07 RMS 1.06E-07

Current DIIS subspace size = 15
REM_GRID_RESTART_DIIS = 0

   22    -152.2965920812      1.06E-07  00000
Finding J and K together
 Job number = 22, Threshold = 1.00E-11
Integral type ranges set in mkLRange.C for JobNum: 22  <1-6|1-6>
 MakeJK  time:  CPU       0.12 s  wall       0.12 s
Fock build time:  0.12 s (CPU) 0.12 s (wall)
DIIS Errors:  Max 1.00E-06 RMS 1.14E-07

Current DIIS subspace size = 15
REM_GRID_RESTART_DIIS = 0

   23    -152.2965920812      1.14E-07  00000
Finding J and K together
 Job number = 22, Threshold = 1.00E-11
Integral type ranges set in mkLRange.C for JobNum: 22  <1-6|1-6>
 MakeJK  time:  CPU       0.16 s  wall       0.16 s
Fock build time:  0.16 s (CPU) 0.16 s (wall)
DIIS Errors:  Max 2.05E-07 RMS 3.24E-08

Current DIIS subspace size = 15
REM_GRID_RESTART_DIIS = 0

   24    -152.2965920812      3.24E-08  00000
Finding J and K together
 Job number = 22, Threshold = 1.00E-11
Integral type ranges set in mkLRange.C for JobNum: 22  <1-6|1-6>
 MakeJK  time:  CPU       0.19 s  wall       0.21 s
Fock build time:  0.19 s (CPU) 0.22 s (wall)
DIIS Errors:  Max 1.64E-08 RMS 3.13E-09

Current DIIS subspace size = 15
REM_GRID_RESTART_DIIS = 0

   25    -152.2965920812      3.13E-09  00000 Convergence criterion met
 ---------------------------------------
 SCF time:  CPU 4.24 s  wall 4.34 s
 SCF   energy in the final basis set = -152.29659208
 Total energy in the final basis set = -152.29659208
drvman_main.C: 73: calling DrvMan  Calculating analytic gradient of the SCF energy
drvman.C : 218: Calculating analytic gradient of the SCF energy
drvman.C: 244: calling SCF_Grad for normal SCF gradient
 Job number = 111, Threshold = 1.00E-11
Integral type ranges set in mkLRange.C for JobNum: 11  <1-6|7-7>
Finding J and K together
 ML is being used
 Job number = 122, Threshold = 1.00E-11
Integral type ranges set in mkLRange.C for JobNum: 22  <1-6|1-6>
 MakeJK  time:  CPU       0.46 s  wall       0.46 s
 Gradient of SCF Energy
            1           2           3           4           5           6
    1  -0.0990959   0.0167563   0.0118850   0.0771041   0.0609067   0.0403777
    2  -0.1731611   0.1914466   0.1422225  -0.1216549  -0.1312754   0.1338527
    3   0.0664099  -0.0155845   0.0104246  -0.0361219   0.1286804  -0.1053962
            7           8           9          10
    1  -0.0108362  -0.0926048   0.0059129  -0.0104057
    2   0.0666353  -0.0982611   0.0525657  -0.0623703
    3  -0.0187587   0.0426550  -0.0954453   0.0231369
 Max gradient component =       1.914E-01
 RMS gradient           =       8.822E-02
drvman.C: 248: out of SCF_Grad for normal SCF gradient
 Gradient time:  CPU 0.48 s  wall 0.49 s
 ------------------------------------------------------------------------------
                     drvman        : Timing summary (seconds)
 ------------------------------------------------------------------------------
     job step          cpu (% of tot)      sys (% of tot)     wall (% of tot)
 ------------------------------------------------------------------------------
 ------------------------------------------------------------------------------
   Grand Totals     0.4760E+00          0.1000E-05          0.4878E+00
 ------------------------------------------------------------------------------
drvman_main.C: 77: out of DrvMan  Time for this dynamics step: 4.7 s (CPU) 4.9 s (wall)

TIME STEP #2 (t = 20.000 a.u. = 0.48378 fs)
--------------------------------------
 Instantaneous Temperature = 529.9 K
 ----------------------------------------------------------------
             Standard Nuclear Orientation (Angstroms)
    I     Atom           X                Y                Z
 ----------------------------------------------------------------
    1      C       4.5596481619     0.0651599613     0.5284787911
    2      C       3.5408880702     0.8457270975    -0.1726127473
    3      H       5.2646221316     1.2944306333     0.7882257179
    4      H       5.1616471655    -1.1802716232     0.3509577852
    5      C       2.2740371497    -0.0737464397     0.1402302473
    6      C       0.8131301836     1.1953827203    -0.6375524149
    7      H       1.0040217741     2.0457854793    -1.3534971399
    8      H      -0.1651326129     0.2858471544    -0.4396248076
    9      H       3.5849286547     1.7092956029    -1.0281904863
   10      H       2.3335965508    -1.1195339999     0.6830986483
 ----------------------------------------------------------------
 Nuclear Repulsion Energy =    89.9543933375 hartrees
 There are       15 alpha and       15 beta electrons

                       Distance Matrix (Angstroms)
             C (  1)   C (  2)   H (  3)   H (  4)   C (  5)   C (  6)
   C (  2)  1.462425
   H (  3)  1.440681  2.023809
   H (  4)  1.394638  2.646820  2.515146
   C (  5)  2.322509  1.596312  3.351926  3.099532
   C (  6)  4.083311  2.789102  4.675300  5.052770  2.085638
   H (  7)  4.484104  3.044720  4.827445  5.531587  2.887313  1.127919
   H (  8)  4.827989  3.757572  5.657481  5.581139  2.532803  1.350344
   H (  9)  2.465052  1.216431  2.508556  3.568990  2.502575  2.845975
   H ( 10)  2.526403  2.460091  3.798577  2.848136  1.179799  3.068351
             H (  7)   H (  8)   H (  9)
   H (  8)  2.302057
   H (  9)  2.623000  4.054081
   H ( 10)  3.991834  3.078839  3.535056

 Applying Cartesian multipole field
    Component          Value
    ---------          -----
     (2,0,0)        1.00000E-12
     (0,2,0)        2.00000E-11
     (0,0,2)       -3.00000E-10
 Nucleus-field energy     =    -0.0000000065 hartrees
 ENuRep (before)= 89.9543933375
 ENucField = -0.0000000065
 ENuRep (after) = 89.9543933311
 Job number = 2, Threshold = 1.00E-11
Integral type ranges set in mkLRange.C for JobNum: 2  <1-6|1-6>
Symmetry turned off temporarily
Symmetry turned back on
 Job number = 11, Threshold = 1.00E-11
Integral type ranges set in mkLRange.C for JobNum: 11  <1-6|7-7>
 Smallest overlap matrix eigenvalue = 2.60E-01
 Multipole matrices computed through 2nd order
 Guess from superposition of atomic densities
 Warning:  Energy on first SCF cycle will be non-variational
 SAD guess density has 30.000000 electrons
 SCF convergence criterion is 10**(-8)
 A restricted Hartree-Fock SCF calculation will be
 performed using Pulay DIIS extrapolation
 SCF converges when DIIS error is below 1.0E-08
Finding J and K together
 Job number = 22, Threshold = 1.00E-11
Integral type ranges set in mkLRange.C for JobNum: 22  <1-6|1-6>
 MakeJK  time:  CPU       0.15 s  wall       0.15 s
Fock build time:  0.15 s (CPU) 0.15 s (wall)
DIIS Errors:  Max 8.44E-01 RMS 1.31E-01

Current DIIS subspace size = 1
REM_GRID_RESTART_DIIS = 0

 ---------------------------------------
  Cycle       Energy         DIIS Error
 ---------------------------------------
    1    -150.8097374451      1.31E-01  00000
Finding J and K together
 Job number = 22, Threshold = 1.00E-11
Integral type ranges set in mkLRange.C for JobNum: 22  <1-6|1-6>
 MakeJK  time:  CPU       0.18 s  wall       0.19 s
Fock build time:  0.18 s (CPU) 0.19 s (wall)
DIIS Errors:  Max 8.55E-02 RMS 1.66E-02

Current DIIS subspace size = 2
REM_GRID_RESTART_DIIS = 0

    2    -152.2495676189      1.66E-02  00000
Finding J and K together
 Job number = 22, Threshold = 1.00E-11
Integral type ranges set in mkLRange.C for JobNum: 22  <1-6|1-6>
 MakeJK  time:  CPU       0.13 s  wall       0.13 s
Fock build time:  0.13 s (CPU) 0.13 s (wall)
DIIS Errors:  Max 1.03E-01 RMS 1.94E-02

Current DIIS subspace size = 3
REM_GRID_RESTART_DIIS = 0

    3    -152.2591773760      1.94E-02  00000
Finding J and K together
 Job number = 22, Threshold = 1.00E-11
Integral type ranges set in mkLRange.C for JobNum: 22  <1-6|1-6>
 MakeJK  time:  CPU       0.15 s  wall       0.15 s
Fock build time:  0.15 s (CPU) 0.15 s (wall)
DIIS Errors:  Max 5.35E-02 RMS 8.07E-03

Current DIIS subspace size = 4
REM_GRID_RESTART_DIIS = 0

    4    -152.3034949436      8.07E-03  00000
Finding J and K together
 Job number = 22, Threshold = 1.00E-11
Integral type ranges set in mkLRange.C for JobNum: 22  <1-6|1-6>
 MakeJK  time:  CPU       0.13 s  wall       0.13 s
Fock build time:  0.13 s (CPU) 0.14 s (wall)
DIIS Errors:  Max 2.00E-02 RMS 2.70E-03

Current DIIS subspace size = 5
REM_GRID_RESTART_DIIS = 0

    5    -152.3139749765      2.70E-03  00000
Finding J and K together
 Job number = 22, Threshold = 1.00E-11
Integral type ranges set in mkLRange.C for JobNum: 22  <1-6|1-6>
 MakeJK  time:  CPU       0.14 s  wall       0.15 s
Fock build time:  0.14 s (CPU) 0.15 s (wall)
DIIS Errors:  Max 1.79E-02 RMS 2.15E-03

Current DIIS subspace size = 6
REM_GRID_RESTART_DIIS = 0

    6    -152.3160372759      2.15E-03  00000
Finding J and K together
 Job number = 22, Threshold = 1.00E-11
Integral type ranges set in mkLRange.C for JobNum: 22  <1-6|1-6>
 MakeJK  time:  CPU       0.13 s  wall       0.13 s
Fock build time:  0.13 s (CPU) 0.13 s (wall)
DIIS Errors:  Max 1.74E-02 RMS 1.92E-03

Current DIIS subspace size = 7
REM_GRID_RESTART_DIIS = 0

    7    -152.3183002496      1.92E-03  00000
Finding J and K together
 Job number = 22, Threshold = 1.00E-11
Integral type ranges set in mkLRange.C for JobNum: 22  <1-6|1-6>
 MakeJK  time:  CPU       0.15 s  wall       0.15 s
Fock build time:  0.15 s (CPU) 0.15 s (wall)
DIIS Errors:  Max 1.55E-02 RMS 1.77E-03

Current DIIS subspace size = 8
REM_GRID_RESTART_DIIS = 0

    8    -152.3199183220      1.77E-03  00000
Finding J and K together
 Job number = 22, Threshold = 1.00E-11
Integral type ranges set in mkLRange.C for JobNum: 22  <1-6|1-6>
 MakeJK  time:  CPU       0.19 s  wall       0.19 s
Fock build time:  0.19 s (CPU) 0.19 s (wall)
DIIS Errors:  Max 1.10E-02 RMS 1.28E-03

Current DIIS subspace size = 9
REM_GRID_RESTART_DIIS = 0

    9    -152.3238307302      1.28E-03  00000
Finding J and K together
 Job number = 22, Threshold = 1.00E-11
Integral type ranges set in mkLRange.C for JobNum: 22  <1-6|1-6>
 MakeJK  time:  CPU       0.18 s  wall       0.20 s
Fock build time:  0.18 s (CPU) 0.20 s (wall)
DIIS Errors:  Max 4.40E-03 RMS 5.57E-04

Current DIIS subspace size = 10
REM_GRID_RESTART_DIIS = 0

   10    -152.3263871828      5.57E-04  00000
Finding J and K together
 Job number = 22, Threshold = 1.00E-11
Integral type ranges set in mkLRange.C for JobNum: 22  <1-6|1-6>
 MakeJK  time:  CPU       0.18 s  wall       0.18 s
Fock build time:  0.18 s (CPU) 0.18 s (wall)
DIIS Errors:  Max 6.01E-03 RMS 7.15E-04

Current DIIS subspace size = 11
REM_GRID_RESTART_DIIS = 0

   11    -152.3260833077      7.15E-04  00000
Finding J and K together
 Job number = 22, Threshold = 1.00E-11
Integral type ranges set in mkLRange.C for JobNum: 22  <1-6|1-6>
 MakeJK  time:  CPU       0.14 s  wall       0.14 s
Fock build time:  0.14 s (CPU) 0.14 s (wall)
DIIS Errors:  Max 2.27E-03 RMS 2.91E-04

Current DIIS subspace size = 12
REM_GRID_RESTART_DIIS = 0

   12    -152.3264715727      2.91E-04  00000
Finding J and K together
 Job number = 22, Threshold = 1.00E-11
Integral type ranges set in mkLRange.C for JobNum: 22  <1-6|1-6>
 MakeJK  time:  CPU       0.16 s  wall       0.16 s
Fock build time:  0.16 s (CPU) 0.16 s (wall)
DIIS Errors:  Max 3.11E-04 RMS 5.10E-05

Current DIIS subspace size = 13
REM_GRID_RESTART_DIIS = 0

   13    -152.3265125423      5.10E-05  00000
Finding J and K together
 Job number = 22, Threshold = 1.00E-11
Integral type ranges set in mkLRange.C for JobNum: 22  <1-6|1-6>
 MakeJK  time:  CPU       0.16 s  wall       0.16 s
Fock build time:  0.16 s (CPU) 0.16 s (wall)
DIIS Errors:  Max 1.96E-04 RMS 3.21E-05

Current DIIS subspace size = 14
REM_GRID_RESTART_DIIS = 0

   14    -152.3265151935      3.21E-05  00000
Finding J and K together
 Job number = 22, Threshold = 1.00E-11
Integral type ranges set in mkLRange.C for JobNum: 22  <1-6|1-6>
 MakeJK  time:  CPU       0.18 s  wall       0.19 s
Fock build time:  0.18 s (CPU) 0.19 s (wall)
DIIS Errors:  Max 3.74E-04 RMS 5.40E-05

Current DIIS subspace size = 15
REM_GRID_RESTART_DIIS = 0

   15    -152.3265152905      5.40E-05  00000
Finding J and K together
 Job number = 22, Threshold = 1.00E-11
Integral type ranges set in mkLRange.C for JobNum: 22  <1-6|1-6>
 MakeJK  time:  CPU       0.18 s  wall       0.19 s
Fock build time:  0.18 s (CPU) 0.19 s (wall)
DIIS Errors:  Max 3.09E-04 RMS 4.20E-05

Current DIIS subspace size = 15
REM_GRID_RESTART_DIIS = 0

   16    -152.3265175717      4.20E-05  00000
Finding J and K together
 Job number = 22, Threshold = 1.00E-11
Integral type ranges set in mkLRange.C for JobNum: 22  <1-6|1-6>
 MakeJK  time:  CPU       0.18 s  wall       0.19 s
Fock build time:  0.18 s (CPU) 0.19 s (wall)
DIIS Errors:  Max 2.03E-04 RMS 2.74E-05

Current DIIS subspace size = 15
REM_GRID_RESTART_DIIS = 0

   17    -152.3265191171      2.74E-05  00000
Finding J and K together
 Job number = 22, Threshold = 1.00E-11
Integral type ranges set in mkLRange.C for JobNum: 22  <1-6|1-6>
 MakeJK  time:  CPU       0.13 s  wall       0.13 s
Fock build time:  0.13 s (CPU) 0.13 s (wall)
DIIS Errors:  Max 5.83E-05 RMS 7.99E-06

Current DIIS subspace size = 15
REM_GRID_RESTART_DIIS = 0

   18    -152.3265195689      7.99E-06  00000
Finding J and K together
 Job number = 22, Threshold = 1.00E-11
Integral type ranges set in mkLRange.C for JobNum: 22  <1-6|1-6>
 MakeJK  time:  CPU       0.14 s  wall       0.15 s
Fock build time:  0.15 s (CPU) 0.15 s (wall)
DIIS Errors:  Max 5.40E-06 RMS 1.02E-06

Current DIIS subspace size = 15
REM_GRID_RESTART_DIIS = 0

   19    -152.3265196063      1.02E-06  00000
Finding J and K together
 Job number = 22, Threshold = 1.00E-11
Integral type ranges set in mkLRange.C for JobNum: 22  <1-6|1-6>
 MakeJK  time:  CPU       0.13 s  wall       0.13 s
Fock build time:  0.13 s (CPU) 0.13 s (wall)
DIIS Errors:  Max 1.69E-05 RMS 1.97E-06

Current DIIS subspace size = 15
REM_GRID_RESTART_DIIS = 0

   20    -152.3265196051      1.97E-06  00000
Finding J and K together
 Job number = 22, Threshold = 1.00E-11
Integral type ranges set in mkLRange.C for JobNum: 22  <1-6|1-6>
 MakeJK  time:  CPU       0.14 s  wall       0.14 s
Fock build time:  0.14 s (CPU) 0.14 s (wall)
DIIS Errors:  Max 5.57E-06 RMS 7.51E-07

Current DIIS subspace size = 15
REM_GRID_RESTART_DIIS = 0

   21    -152.3265196071      7.51E-07  00000
Finding J and K together
 Job number = 22, Threshold = 1.00E-11
Integral type ranges set in mkLRange.C for JobNum: 22  <1-6|1-6>
 MakeJK  time:  CPU       0.14 s  wall       0.14 s
Fock build time:  0.14 s (CPU) 0.14 s (wall)
DIIS Errors:  Max 3.96E-07 RMS 7.37E-08

Current DIIS subspace size = 15
REM_GRID_RESTART_DIIS = 0

   22    -152.3265196073      7.37E-08  00000
Finding J and K together
 Job number = 22, Threshold = 1.00E-11
Integral type ranges set in mkLRange.C for JobNum: 22  <1-6|1-6>
 MakeJK  time:  CPU       0.14 s  wall       0.14 s
Fock build time:  0.14 s (CPU) 0.14 s (wall)
DIIS Errors:  Max 8.77E-08 RMS 1.78E-08

Current DIIS subspace size = 15
REM_GRID_RESTART_DIIS = 0

   23    -152.3265196073      1.78E-08  00000
Finding J and K together
 Job number = 22, Threshold = 1.00E-11
Integral type ranges set in mkLRange.C for JobNum: 22  <1-6|1-6>
 MakeJK  time:  CPU       0.16 s  wall       0.17 s
Fock build time:  0.16 s (CPU) 0.17 s (wall)
DIIS Errors:  Max 5.01E-08 RMS 1.10E-08

Current DIIS subspace size = 15
REM_GRID_RESTART_DIIS = 0

   24    -152.3265196073      1.10E-08  00000
Finding J and K together
 Job number = 22, Threshold = 1.00E-11
Integral type ranges set in mkLRange.C for JobNum: 22  <1-6|1-6>
 MakeJK  time:  CPU       0.17 s  wall       0.18 s
Fock build time:  0.17 s (CPU) 0.18 s (wall)
DIIS Errors:  Max 1.33E-08 RMS 2.10E-09

Current DIIS subspace size = 15
REM_GRID_RESTART_DIIS = 0

   25    -152.3265196073      2.10E-09  00000 Convergence criterion met
 ---------------------------------------
 SCF time:  CPU 3.94 s  wall 4.01 s
 SCF   energy in the final basis set = -152.32651961
 Total energy in the final basis set = -152.32651961
drvman_main.C: 73: calling DrvMan  Calculating analytic gradient of the SCF energy
drvman.C : 218: Calculating analytic gradient of the SCF energy
drvman.C: 244: calling SCF_Grad for normal SCF gradient
 Job number = 111, Threshold = 1.00E-11
Integral type ranges set in mkLRange.C for JobNum: 11  <1-6|7-7>
Finding J and K together
 ML is being used
 Job number = 122, Threshold = 1.00E-11
Integral type ranges set in mkLRange.C for JobNum: 22  <1-6|1-6>
 MakeJK  time:  CPU       0.40 s  wall       0.45 s
 Gradient of SCF Energy
            1           2           3           4           5           6
    1  -0.0932581   0.0195205   0.0102465   0.0748733   0.0570072   0.0408083
    2  -0.1742102   0.1981048   0.1413895  -0.1189822  -0.1360724   0.1475108
    3   0.0675389  -0.0217069   0.0093134  -0.0364049   0.1253421  -0.1130075
            7           8           9          10
    1  -0.0134262  -0.0888677   0.0040963  -0.0110001
    2   0.0522179  -0.0989153   0.0443507  -0.0553936
    3  -0.0079691   0.0422024  -0.0869412   0.0216328
 Max gradient component =       1.981E-01
 RMS gradient           =       8.837E-02
drvman.C: 248: out of SCF_Grad for normal SCF gradient
 Gradient time:  CPU 0.41 s  wall 0.47 s
 ------------------------------------------------------------------------------
                     drvman        : Timing summary (seconds)
 ------------------------------------------------------------------------------
     job step          cpu (% of tot)      sys (% of tot)     wall (% of tot)
 ------------------------------------------------------------------------------
 ------------------------------------------------------------------------------
   Grand Totals     0.4120E+00          0.2000E-05          0.4703E+00
 ------------------------------------------------------------------------------
drvman_main.C: 77: out of DrvMan  Time for this dynamics step: 4.4 s (CPU) 4.5 s (wall)

TIME STEP #3 (t = 40.000 a.u. = 0.96755 fs)
--------------------------------------
 Instantaneous Temperature = 1155.7 K
 ----------------------------------------------------------------
             Standard Nuclear Orientation (Angstroms)
    I     Atom           X                Y                Z
 ----------------------------------------------------------------
    1      C       4.5630291106     0.0683834926     0.5287333354
    2      C       3.5430471432     0.8404874092    -0.1747336714
    3      H       5.2527429571     1.2583824070     0.7870799846
    4      H       5.1351623069    -1.1476154442     0.3574870276
    5      C       2.2731644094    -0.0695128052     0.1378399042
    6      C       0.8088700349     1.1949390722    -0.6374551668
    7      H       1.0124988343     2.0184731378    -1.3299118796
    8      H      -0.1314251335     0.2956080144    -0.4453118875
    9      H       3.5752953926     1.6892652657    -0.9925502647
   10      H       2.3345616714    -1.0996807126     0.6737026457
 ----------------------------------------------------------------
 Nuclear Repulsion Energy =    90.5781560138 hartrees
 There are       15 alpha and       15 beta electrons

                       Distance Matrix (Angstroms)
             C (  1)   C (  2)   H (  3)   H (  4)   C (  5)   C (  6)
   C (  2)  1.459922
   H (  3)  1.399480  2.005687
   H (  4)  1.354738  2.602046  2.446876
   C (  5)  2.327078  1.593237  3.326065  3.066200
   C (  6)  4.089356  2.795617  4.667047  5.019390  2.084245
   H (  7)  4.456869  3.020888  4.799902  5.465143  2.846622  1.095066
   H (  8)  4.799822  3.724494  5.606692  5.519450  2.501086  1.315245
   H (  9)  2.432525  1.179105  2.483259  3.507660  2.463052  2.832589
   H ( 10)  2.520210  2.438141  3.753545  2.818804  1.162826  3.051582
             H (  7)   H (  8)   H (  9)
   H (  8)  2.249298
   H (  9)  2.605785  3.997690
   H ( 10)  3.935124  3.046328  3.477648

 Applying Cartesian multipole field
    Component          Value
    ---------          -----
     (2,0,0)        1.00000E-12
     (0,2,0)        2.00000E-11
     (0,0,2)       -3.00000E-10
 Nucleus-field energy     =    -0.0000000064 hartrees
 ENuRep (before)= 90.5781560138
 ENucField = -0.0000000064
 ENuRep (after) = 90.5781560074
 Job number = 2, Threshold = 1.00E-11
Integral type ranges set in mkLRange.C for JobNum: 2  <1-6|1-6>
Symmetry turned off temporarily
Symmetry turned back on
 Job number = 11, Threshold = 1.00E-11
Integral type ranges set in mkLRange.C for JobNum: 11  <1-6|7-7>
 Smallest overlap matrix eigenvalue = 2.57E-01
 Multipole matrices computed through 2nd order
 Guess from superposition of atomic densities
 Warning:  Energy on first SCF cycle will be non-variational
 SAD guess density has 30.000000 electrons
 SCF convergence criterion is 10**(-8)
 A restricted Hartree-Fock SCF calculation will be
 performed using Pulay DIIS extrapolation
 SCF converges when DIIS error is below 1.0E-08
Finding J and K together
 Job number = 22, Threshold = 1.00E-11
Integral type ranges set in mkLRange.C for JobNum: 22  <1-6|1-6>
 MakeJK  time:  CPU       0.10 s  wall       0.11 s
Fock build time:  0.10 s (CPU) 0.11 s (wall)
DIIS Errors:  Max 8.49E-01 RMS 1.35E-01

Current DIIS subspace size = 1
REM_GRID_RESTART_DIIS = 0

 ---------------------------------------
  Cycle       Energy         DIIS Error
 ---------------------------------------
    1    -150.9277957371      1.35E-01  00000
Finding J and K together
 Job number = 22, Threshold = 1.00E-11
Integral type ranges set in mkLRange.C for JobNum: 22  <1-6|1-6>
 MakeJK  time:  CPU       0.16 s  wall       0.16 s
Fock build time:  0.16 s (CPU) 0.16 s (wall)
DIIS Errors:  Max 9.51E-02 RMS 1.85E-02

Current DIIS subspace size = 2
REM_GRID_RESTART_DIIS = 0

    2    -152.2897178100      1.85E-02  00000
Finding J and K together
 Job number = 22, Threshold = 1.00E-11
Integral type ranges set in mkLRange.C for JobNum: 22  <1-6|1-6>
 MakeJK  time:  CPU       0.14 s  wall       0.14 s
Fock build time:  0.14 s (CPU) 0.14 s (wall)
DIIS Errors:  Max 1.31E-01 RMS 2.47E-02

Current DIIS subspace size = 3
REM_GRID_RESTART_DIIS = 0

    3    -152.2755268327      2.47E-02  00000
Finding J and K together
 Job number = 22, Threshold = 1.00E-11
Integral type ranges set in mkLRange.C for JobNum: 22  <1-6|1-6>
 MakeJK  time:  CPU       0.19 s  wall       0.19 s
Fock build time:  0.19 s (CPU) 0.19 s (wall)
DIIS Errors:  Max 5.06E-02 RMS 7.20E-03

Current DIIS subspace size = 4
REM_GRID_RESTART_DIIS = 0

    4    -152.3514923315      7.20E-03  00000
Finding J and K together
 Job number = 22, Threshold = 1.00E-11
Integral type ranges set in mkLRange.C for JobNum: 22  <1-6|1-6>
 MakeJK  time:  CPU       0.19 s  wall       0.19 s
Fock build time:  0.19 s (CPU) 0.19 s (wall)
DIIS Errors:  Max 2.09E-02 RMS 2.82E-03

Current DIIS subspace size = 5
REM_GRID_RESTART_DIIS = 0

    5    -152.3605191021      2.82E-03  00000
Finding J and K together
 Job number = 22, Threshold = 1.00E-11
Integral type ranges set in mkLRange.C for JobNum: 22  <1-6|1-6>
 MakeJK  time:  CPU       0.18 s  wall       0.18 s
Fock build time:  0.18 s (CPU) 0.18 s (wall)
DIIS Errors:  Max 1.98E-02 RMS 2.28E-03

Current DIIS subspace size = 6
REM_GRID_RESTART_DIIS = 0

    6    -152.3628305837      2.28E-03  00000
Finding J and K together
 Job number = 22, Threshold = 1.00E-11
Integral type ranges set in mkLRange.C for JobNum: 22  <1-6|1-6>
 MakeJK  time:  CPU       0.18 s  wall       0.21 s
Fock build time:  0.18 s (CPU) 0.21 s (wall)
DIIS Errors:  Max 1.76E-02 RMS 1.94E-03

Current DIIS subspace size = 7
REM_GRID_RESTART_DIIS = 0

    7    -152.3656558327      1.94E-03  00000
Finding J and K together
 Job number = 22, Threshold = 1.00E-11
Integral type ranges set in mkLRange.C for JobNum: 22  <1-6|1-6>
 MakeJK  time:  CPU       0.20 s  wall       0.20 s
Fock build time:  0.20 s (CPU) 0.20 s (wall)
DIIS Errors:  Max 1.40E-02 RMS 1.65E-03

Current DIIS subspace size = 8
REM_GRID_RESTART_DIIS = 0

    8    -152.3680100610      1.65E-03  00000
Finding J and K together
 Job number = 22, Threshold = 1.00E-11
Integral type ranges set in mkLRange.C for JobNum: 22  <1-6|1-6>
 MakeJK  time:  CPU       0.20 s  wall       0.20 s
Fock build time:  0.20 s (CPU) 0.20 s (wall)
DIIS Errors:  Max 5.34E-03 RMS 7.14E-04

Current DIIS subspace size = 9
REM_GRID_RESTART_DIIS = 0

    9    -152.3718096952      7.14E-04  00000
Finding J and K together
 Job number = 22, Threshold = 1.00E-11
Integral type ranges set in mkLRange.C for JobNum: 22  <1-6|1-6>
 MakeJK  time:  CPU       0.15 s  wall       0.15 s
Fock build time:  0.15 s (CPU) 0.15 s (wall)
DIIS Errors:  Max 1.58E-03 RMS 2.90E-04

Current DIIS subspace size = 10
REM_GRID_RESTART_DIIS = 0

   10    -152.3725333687      2.90E-04  00000
Finding J and K together
 Job number = 22, Threshold = 1.00E-11
Integral type ranges set in mkLRange.C for JobNum: 22  <1-6|1-6>
 MakeJK  time:  CPU       0.14 s  wall       0.14 s
Fock build time:  0.14 s (CPU) 0.14 s (wall)
DIIS Errors:  Max 8.76E-04 RMS 1.21E-04

Current DIIS subspace size = 11
REM_GRID_RESTART_DIIS = 0

   11    -152.3726089110      1.21E-04  00000
Finding J and K together
 Job number = 22, Threshold = 1.00E-11
Integral type ranges set in mkLRange.C for JobNum: 22  <1-6|1-6>
 MakeJK  time:  CPU       0.15 s  wall       0.15 s
Fock build time:  0.15 s (CPU) 0.15 s (wall)
DIIS Errors:  Max 2.40E-04 RMS 4.47E-05

Current DIIS subspace size = 12
REM_GRID_RESTART_DIIS = 0

   12    -152.3726293566      4.47E-05  00000
Finding J and K together
 Job number = 22, Threshold = 1.00E-11
Integral type ranges set in mkLRange.C for JobNum: 22  <1-6|1-6>
 MakeJK  time:  CPU       0.16 s  wall       0.16 s
Fock build time:  0.16 s (CPU) 0.16 s (wall)
DIIS Errors:  Max 1.64E-04 RMS 2.62E-05

Current DIIS subspace size = 13
REM_GRID_RESTART_DIIS = 0

   13    -152.3726307436      2.62E-05  00000
Finding J and K together
 Job number = 22, Threshold = 1.00E-11
Integral type ranges set in mkLRange.C for JobNum: 22  <1-6|1-6>
 MakeJK  time:  CPU       0.19 s  wall       0.19 s
Fock build time:  0.19 s (CPU) 0.19 s (wall)
DIIS Errors:  Max 1.71E-04 RMS 2.27E-05

Current DIIS subspace size = 14
REM_GRID_RESTART_DIIS = 0

   14    -152.3726310887      2.27E-05  00000
Finding J and K together
 Job number = 22, Threshold = 1.00E-11
Integral type ranges set in mkLRange.C for JobNum: 22  <1-6|1-6>
 MakeJK  time:  CPU       0.19 s  wall       0.19 s
Fock build time:  0.19 s (CPU) 0.19 s (wall)
DIIS Errors:  Max 1.89E-04 RMS 2.53E-05

Current DIIS subspace size = 15
REM_GRID_RESTART_DIIS = 0

   15    -152.3726311921      2.53E-05  00000
Finding J and K together
 Job number = 22, Threshold = 1.00E-11
Integral type ranges set in mkLRange.C for JobNum: 22  <1-6|1-6>
 MakeJK  time:  CPU       0.18 s  wall       0.18 s
Fock build time:  0.18 s (CPU) 0.18 s (wall)
DIIS Errors:  Max 4.77E-05 RMS 7.66E-06

Current DIIS subspace size = 15
REM_GRID_RESTART_DIIS = 0

   16    -152.3726316552      7.66E-06  00000
Finding J and K together
 Job number = 22, Threshold = 1.00E-11
Integral type ranges set in mkLRange.C for JobNum: 22  <1-6|1-6>
 MakeJK  time:  CPU       0.18 s  wall       0.18 s
Fock build time:  0.18 s (CPU) 0.18 s (wall)
DIIS Errors:  Max 4.52E-05 RMS 7.38E-06

Current DIIS subspace size = 15
REM_GRID_RESTART_DIIS = 0

   17    -152.3726318143      7.38E-06  00000
Finding J and K together
 Job number = 22, Threshold = 1.00E-11
Integral type ranges set in mkLRange.C for JobNum: 22  <1-6|1-6>
 MakeJK  time:  CPU       0.18 s  wall       0.18 s
Fock build time:  0.18 s (CPU) 0.18 s (wall)
DIIS Errors:  Max 3.29E-05 RMS 4.35E-06

Current DIIS subspace size = 15
REM_GRID_RESTART_DIIS = 0

   18    -152.3726318780      4.35E-06  00000
Finding J and K together
 Job number = 22, Threshold = 1.00E-11
Integral type ranges set in mkLRange.C for JobNum: 22  <1-6|1-6>
 MakeJK  time:  CPU       0.18 s  wall       0.18 s
Fock build time:  0.18 s (CPU) 0.18 s (wall)
DIIS Errors:  Max 2.31E-06 RMS 4.90E-07

Current DIIS subspace size = 15
REM_GRID_RESTART_DIIS = 0

   19    -152.3726318873      4.90E-07  00000
Finding J and K together
 Job number = 22, Threshold = 1.00E-11
Integral type ranges set in mkLRange.C for JobNum: 22  <1-6|1-6>
 MakeJK  time:  CPU       0.18 s  wall       0.18 s
Fock build time:  0.18 s (CPU) 0.18 s (wall)
DIIS Errors:  Max 1.27E-06 RMS 2.16E-07

Current DIIS subspace size = 15
REM_GRID_RESTART_DIIS = 0

   20    -152.3726318875      2.16E-07  00000
Finding J and K together
 Job number = 22, Threshold = 1.00E-11
Integral type ranges set in mkLRange.C for JobNum: 22  <1-6|1-6>
 MakeJK  time:  CPU       0.17 s  wall       0.17 s
Fock build time:  0.17 s (CPU) 0.17 s (wall)
DIIS Errors:  Max 1.43E-06 RMS 1.96E-07

Current DIIS subspace size = 15
REM_GRID_RESTART_DIIS = 0

   21    -152.3726318875      1.96E-07  00000
Finding J and K together
 Job number = 22, Threshold = 1.00E-11
Integral type ranges set in mkLRange.C for JobNum: 22  <1-6|1-6>
 MakeJK  time:  CPU       0.17 s  wall       0.17 s
Fock build time:  0.17 s (CPU) 0.17 s (wall)
DIIS Errors:  Max 6.81E-08 RMS 1.36E-08

Current DIIS subspace size = 15
REM_GRID_RESTART_DIIS = 0

   22    -152.3726318875      1.36E-08  00000
Finding J and K together
 Job number = 22, Threshold = 1.00E-11
Integral type ranges set in mkLRange.C for JobNum: 22  <1-6|1-6>
 MakeJK  time:  CPU       0.19 s  wall       0.19 s
Fock build time:  0.19 s (CPU) 0.19 s (wall)
DIIS Errors:  Max 1.38E-07 RMS 1.76E-08

Current DIIS subspace size = 15
REM_GRID_RESTART_DIIS = 0

   23    -152.3726318875      1.76E-08  00000
Finding J and K together
 Job number = 22, Threshold = 1.00E-11
Integral type ranges set in mkLRange.C for JobNum: 22  <1-6|1-6>
 MakeJK  time:  CPU       0.18 s  wall       0.19 s
Fock build time:  0.19 s (CPU) 0.19 s (wall)
DIIS Errors:  Max 8.54E-09 RMS 1.18E-09

Current DIIS subspace size = 15
REM_GRID_RESTART_DIIS = 0

   24    -152.3726318875      1.18E-09  00000 Convergence criterion met
 ---------------------------------------
 SCF time:  CPU 4.18 s  wall 4.25 s
 SCF   energy in the final basis set = -152.37263189
 Total energy in the final basis set = -152.37263189
drvman_main.C: 73: calling DrvMan  Calculating analytic gradient of the SCF energy
drvman.C : 218: Calculating analytic gradient of the SCF energy
drvman.C: 244: calling SCF_Grad for normal SCF gradient
 Job number = 111, Threshold = 1.00E-11
Integral type ranges set in mkLRange.C for JobNum: 11  <1-6|7-7>
Finding J and K together
 ML is being used
 Job number = 122, Threshold = 1.00E-11
Integral type ranges set in mkLRange.C for JobNum: 22  <1-6|1-6>
 MakeJK  time:  CPU       0.48 s  wall       0.48 s
 Gradient of SCF Energy
            1           2           3           4           5           6
    1  -0.0854048   0.0221873   0.0080084   0.0711560   0.0540562   0.0382370
    2  -0.1749404   0.2071607   0.1383487  -0.1130679  -0.1430657   0.1625491
    3   0.0682905  -0.0326232   0.0084067  -0.0363811   0.1242919  -0.1235967
            7           8           9          10
    1  -0.0171301  -0.0820158   0.0021534  -0.0112476
    2   0.0337957  -0.0965054   0.0311821  -0.0454570
    3   0.0061095   0.0410690  -0.0738395   0.0182729
 Max gradient component =       2.072E-01
 RMS gradient           =       8.863E-02
drvman.C: 248: out of SCF_Grad for normal SCF gradient
 Gradient time:  CPU 0.50 s  wall 0.50 s
 ------------------------------------------------------------------------------
                     drvman        : Timing summary (seconds)
 ------------------------------------------------------------------------------
     job step          cpu (% of tot)      sys (% of tot)     wall (% of tot)
 ------------------------------------------------------------------------------
 ------------------------------------------------------------------------------
   Grand Totals     0.5000E+00          0.2000E-05          0.5014E+00
 ------------------------------------------------------------------------------
drvman_main.C: 77: out of DrvMan  Time for this dynamics step: 4.7 s (CPU) 4.8 s (wall)

TIME STEP #4 (t = 60.000 a.u. = 1.45133 fs)
--------------------------------------
 Instantaneous Temperature = 2119.5 K
 ----------------------------------------------------------------
             Standard Nuclear Orientation (Angstroms)
    I     Atom           X                Y                Z
 ----------------------------------------------------------------
    1      C       4.5672364815     0.0732998407     0.5283270642
    2      C       3.5449915197     0.8332431236    -0.1765389158
    3      H       5.2399410823     1.2063941566     0.7849656587
    4      H       5.1004791222    -1.1019320105     0.3682079649
    5      C       2.2717685924    -0.0638947910     0.1342468466
    6      C       0.8042398846     1.1929225127    -0.6361619312
    7      H       1.0229495648     1.9872669810    -1.3070305349
    8      H      -0.0882680998     0.3164878696    -0.4557307799
    9      H       3.5654140223     1.6656422403    -0.9484025328
   10      H       2.3368227024    -1.0745900450     0.6622013105
 ----------------------------------------------------------------
 Nuclear Repulsion Energy =    91.4308587225 hartrees
 There are       15 alpha and       15 beta electrons

                       Distance Matrix (Angstroms)
             C (  1)   C (  2)   H (  3)   H (  4)   C (  5)   C (  6)
   C (  2)  1.455793
   H (  3)  1.342497  1.984083
   H (  4)  1.300444  2.541888  2.349789
   C (  5)  2.333087  1.588251  3.293496  3.022228
   C (  6)  4.095086  2.802203  4.657814  4.973207  2.080087
   H (  7)  4.426486  2.995076  4.771711  5.382919  2.800731  1.062488
   H (  8)  4.764581  3.680429  5.542659  5.441864  2.462222  1.263829
   H (  9)  2.391638  1.135376  2.453470  3.427733  2.415977  2.818695
   H ( 10)  2.512035  2.408938  3.694057  2.779384  1.142135  3.029219
             H (  7)   H (  8)   H (  9)
   H (  8)  2.179683
   H (  9)  2.587698  3.925855
   H ( 10)  3.870285  3.010969  3.407690

 Applying Cartesian multipole field
    Component          Value
    ---------          -----
     (2,0,0)        1.00000E-12
     (0,2,0)        2.00000E-11
     (0,0,2)       -3.00000E-10
 Nucleus-field energy     =    -0.0000000062 hartrees
 ENuRep (before)= 91.4308587225
 ENucField = -0.0000000062
 ENuRep (after) = 91.4308587163
 Job number = 2, Threshold = 1.00E-11
Integral type ranges set in mkLRange.C for JobNum: 2  <1-6|1-6>
Symmetry turned off temporarily
Symmetry turned back on
 Job number = 11, Threshold = 1.00E-11
Integral type ranges set in mkLRange.C for JobNum: 11  <1-6|7-7>
 Smallest overlap matrix eigenvalue = 2.53E-01
 Multipole matrices computed through 2nd order
 Guess from superposition of atomic densities
 Warning:  Energy on first SCF cycle will be non-variational
 SAD guess density has 30.000000 electrons
 SCF convergence criterion is 10**(-8)
 A restricted Hartree-Fock SCF calculation will be
 performed using Pulay DIIS extrapolation
 SCF converges when DIIS error is below 1.0E-08
Finding J and K together
 Job number = 22, Threshold = 1.00E-11
Integral type ranges set in mkLRange.C for JobNum: 22  <1-6|1-6>
 MakeJK  time:  CPU       0.15 s  wall       0.15 s
Fock build time:  0.15 s (CPU) 0.15 s (wall)
DIIS Errors:  Max 8.58E-01 RMS 1.41E-01

Current DIIS subspace size = 1
REM_GRID_RESTART_DIIS = 0

 ---------------------------------------
  Cycle       Energy         DIIS Error
 ---------------------------------------
    1    -151.0903228718      1.41E-01  00000
Finding J and K together
 Job number = 22, Threshold = 1.00E-11
Integral type ranges set in mkLRange.C for JobNum: 22  <1-6|1-6>
 MakeJK  time:  CPU       0.18 s  wall       0.19 s
Fock build time:  0.18 s (CPU) 0.19 s (wall)
DIIS Errors:  Max 1.15E-01 RMS 2.04E-02

Current DIIS subspace size = 2
REM_GRID_RESTART_DIIS = 0

    2    -152.3403395270      2.04E-02  00000
Finding J and K together
 Job number = 22, Threshold = 1.00E-11
Integral type ranges set in mkLRange.C for JobNum: 22  <1-6|1-6>
 MakeJK  time:  CPU       0.19 s  wall       0.19 s
Fock build time:  0.19 s (CPU) 0.19 s (wall)
DIIS Errors:  Max 1.53E-01 RMS 2.88E-02

Current DIIS subspace size = 3
REM_GRID_RESTART_DIIS = 0

    3    -152.3052401905      2.88E-02  00000
Finding J and K together
 Job number = 22, Threshold = 1.00E-11
Integral type ranges set in mkLRange.C for JobNum: 22  <1-6|1-6>
 MakeJK  time:  CPU       0.18 s  wall       0.18 s
Fock build time:  0.18 s (CPU) 0.18 s (wall)
DIIS Errors:  Max 5.05E-02 RMS 6.77E-03

Current DIIS subspace size = 4
REM_GRID_RESTART_DIIS = 0

    4    -152.4102400913      6.77E-03  00000
Finding J and K together
 Job number = 22, Threshold = 1.00E-11
Integral type ranges set in mkLRange.C for JobNum: 22  <1-6|1-6>
 MakeJK  time:  CPU       0.16 s  wall       0.16 s
Fock build time:  0.16 s (CPU) 0.16 s (wall)
DIIS Errors:  Max 2.13E-02 RMS 2.85E-03

Current DIIS subspace size = 5
REM_GRID_RESTART_DIIS = 0

    5    -152.4185521718      2.85E-03  00000
Finding J and K together
 Job number = 22, Threshold = 1.00E-11
Integral type ranges set in mkLRange.C for JobNum: 22  <1-6|1-6>
 MakeJK  time:  CPU       0.13 s  wall       0.13 s
Fock build time:  0.13 s (CPU) 0.13 s (wall)
DIIS Errors:  Max 2.10E-02 RMS 2.35E-03

Current DIIS subspace size = 6
REM_GRID_RESTART_DIIS = 0

    6    -152.4210728157      2.35E-03  00000
Finding J and K together
 Job number = 22, Threshold = 1.00E-11
Integral type ranges set in mkLRange.C for JobNum: 22  <1-6|1-6>
 MakeJK  time:  CPU       0.15 s  wall       0.15 s
Fock build time:  0.15 s (CPU) 0.15 s (wall)
DIIS Errors:  Max 1.68E-02 RMS 1.89E-03

Current DIIS subspace size = 7
REM_GRID_RESTART_DIIS = 0

    7    -152.4241832553      1.89E-03  00000
Finding J and K together
 Job number = 22, Threshold = 1.00E-11
Integral type ranges set in mkLRange.C for JobNum: 22  <1-6|1-6>
 MakeJK  time:  CPU       0.18 s  wall       0.18 s
Fock build time:  0.18 s (CPU) 0.18 s (wall)
DIIS Errors:  Max 7.90E-03 RMS 9.77E-04

Current DIIS subspace size = 8
REM_GRID_RESTART_DIIS = 0

    8    -152.4284497413      9.77E-04  00000
Finding J and K together
 Job number = 22, Threshold = 1.00E-11
Integral type ranges set in mkLRange.C for JobNum: 22  <1-6|1-6>
 MakeJK  time:  CPU       0.18 s  wall       0.18 s
Fock build time:  0.18 s (CPU) 0.18 s (wall)
DIIS Errors:  Max 1.76E-03 RMS 3.05E-04

Current DIIS subspace size = 9
REM_GRID_RESTART_DIIS = 0

    9    -152.4297873447      3.05E-04  00000
Finding J and K together
 Job number = 22, Threshold = 1.00E-11
Integral type ranges set in mkLRange.C for JobNum: 22  <1-6|1-6>
 MakeJK  time:  CPU       0.18 s  wall       0.18 s
Fock build time:  0.18 s (CPU) 0.18 s (wall)
DIIS Errors:  Max 1.19E-03 RMS 1.73E-04

Current DIIS subspace size = 10
REM_GRID_RESTART_DIIS = 0

   10    -152.4298499842      1.73E-04  00000
Finding J and K together
 Job number = 22, Threshold = 1.00E-11
Integral type ranges set in mkLRange.C for JobNum: 22  <1-6|1-6>
 MakeJK  time:  CPU       0.18 s  wall       0.18 s
Fock build time:  0.18 s (CPU) 0.18 s (wall)
DIIS Errors:  Max 6.85E-04 RMS 9.13E-05

Current DIIS subspace size = 11
REM_GRID_RESTART_DIIS = 0

   11    -152.4298737988      9.13E-05  00000
Finding J and K together
 Job number = 22, Threshold = 1.00E-11
Integral type ranges set in mkLRange.C for JobNum: 22  <1-6|1-6>
 MakeJK  time:  CPU       0.18 s  wall       0.18 s
Fock build time:  0.18 s (CPU) 0.18 s (wall)
DIIS Errors:  Max 1.70E-04 RMS 2.43E-05

Current DIIS subspace size = 12
REM_GRID_RESTART_DIIS = 0

   12    -152.4298834446      2.43E-05  00000
Finding J and K together
 Job number = 22, Threshold = 1.00E-11
Integral type ranges set in mkLRange.C for JobNum: 22  <1-6|1-6>
 MakeJK  time:  CPU       0.18 s  wall       0.19 s
Fock build time:  0.18 s (CPU) 0.19 s (wall)
DIIS Errors:  Max 6.54E-05 RMS 9.48E-06

Current DIIS subspace size = 13
REM_GRID_RESTART_DIIS = 0

   13    -152.4298838760      9.48E-06  00000
Finding J and K together
 Job number = 22, Threshold = 1.00E-11
Integral type ranges set in mkLRange.C for JobNum: 22  <1-6|1-6>
 MakeJK  time:  CPU       0.19 s  wall       0.19 s
Fock build time:  0.19 s (CPU) 0.19 s (wall)
DIIS Errors:  Max 4.52E-05 RMS 6.82E-06

Current DIIS subspace size = 14
REM_GRID_RESTART_DIIS = 0

   14    -152.4298838975      6.82E-06  00000
Finding J and K together
 Job number = 22, Threshold = 1.00E-11
Integral type ranges set in mkLRange.C for JobNum: 22  <1-6|1-6>
 MakeJK  time:  CPU       0.19 s  wall       0.19 s
Fock build time:  0.19 s (CPU) 0.19 s (wall)
DIIS Errors:  Max 5.76E-05 RMS 7.04E-06

Current DIIS subspace size = 15
REM_GRID_RESTART_DIIS = 0

   15    -152.4298839079      7.04E-06  00000
Finding J and K together
 Job number = 22, Threshold = 1.00E-11
Integral type ranges set in mkLRange.C for JobNum: 22  <1-6|1-6>
 MakeJK  time:  CPU       0.19 s  wall       0.19 s
Fock build time:  0.19 s (CPU) 0.19 s (wall)
DIIS Errors:  Max 2.81E-05 RMS 4.19E-06

Current DIIS subspace size = 15
REM_GRID_RESTART_DIIS = 0

   16    -152.4298839317      4.19E-06  00000
Finding J and K together
 Job number = 22, Threshold = 1.00E-11
Integral type ranges set in mkLRange.C for JobNum: 22  <1-6|1-6>
 MakeJK  time:  CPU       0.19 s  wall       0.19 s
Fock build time:  0.19 s (CPU) 0.19 s (wall)
DIIS Errors:  Max 1.04E-05 RMS 1.60E-06

Current DIIS subspace size = 15
REM_GRID_RESTART_DIIS = 0

   17    -152.4298839488      1.60E-06  00000
Finding J and K together
 Job number = 22, Threshold = 1.00E-11
Integral type ranges set in mkLRange.C for JobNum: 22  <1-6|1-6>
 MakeJK  time:  CPU       0.18 s  wall       0.19 s
Fock build time:  0.18 s (CPU) 0.19 s (wall)
DIIS Errors:  Max 7.79E-06 RMS 1.07E-06

Current DIIS subspace size = 15
REM_GRID_RESTART_DIIS = 0

   18    -152.4298839567      1.07E-06  00000
Finding J and K together
 Job number = 22, Threshold = 1.00E-11
Integral type ranges set in mkLRange.C for JobNum: 22  <1-6|1-6>
 MakeJK  time:  CPU       0.17 s  wall       0.17 s
Fock build time:  0.17 s (CPU) 0.17 s (wall)
DIIS Errors:  Max 9.86E-07 RMS 2.15E-07

Current DIIS subspace size = 15
REM_GRID_RESTART_DIIS = 0

   19    -152.4298839575      2.15E-07  00000
Finding J and K together
 Job number = 22, Threshold = 1.00E-11
Integral type ranges set in mkLRange.C for JobNum: 22  <1-6|1-6>
 MakeJK  time:  CPU       0.16 s  wall       0.17 s
Fock build time:  0.16 s (CPU) 0.17 s (wall)
DIIS Errors:  Max 1.54E-06 RMS 2.36E-07

Current DIIS subspace size = 15
REM_GRID_RESTART_DIIS = 0

   20    -152.4298839575      2.36E-07  00000
Finding J and K together
 Job number = 22, Threshold = 1.00E-11
Integral type ranges set in mkLRange.C for JobNum: 22  <1-6|1-6>
 MakeJK  time:  CPU       0.16 s  wall       0.17 s
Fock build time:  0.16 s (CPU) 0.17 s (wall)
DIIS Errors:  Max 9.40E-08 RMS 1.70E-08

Current DIIS subspace size = 15
REM_GRID_RESTART_DIIS = 0

   21    -152.4298839576      1.70E-08  00000
Finding J and K together
 Job number = 22, Threshold = 1.00E-11
Integral type ranges set in mkLRange.C for JobNum: 22  <1-6|1-6>
 MakeJK  time:  CPU       0.14 s  wall       0.14 s
Fock build time:  0.14 s (CPU) 0.14 s (wall)
DIIS Errors:  Max 7.47E-08 RMS 9.76E-09

Current DIIS subspace size = 15
REM_GRID_RESTART_DIIS = 0

   22    -152.4298839576      9.76E-09  00000 Convergence criterion met
 ---------------------------------------
 SCF time:  CPU 3.87 s  wall 3.90 s
 SCF   energy in the final basis set = -152.42988396
 Total energy in the final basis set = -152.42988396
drvman_main.C: 73: calling DrvMan  Calculating analytic gradient of the SCF energy
drvman.C : 218: Calculating analytic gradient of the SCF energy
drvman.C: 244: calling SCF_Grad for normal SCF gradient
 Job number = 111, Threshold = 1.00E-11
Integral type ranges set in mkLRange.C for JobNum: 11  <1-6|7-7>
Finding J and K together
 ML is being used
 Job number = 122, Threshold = 1.00E-11
Integral type ranges set in mkLRange.C for JobNum: 22  <1-6|1-6>
 MakeJK  time:  CPU       0.41 s  wall       0.41 s
 Gradient of SCF Energy
            1           2           3           4           5           6
    1  -0.0734671   0.0242802   0.0042010   0.0650757   0.0523096   0.0308556
    2  -0.1752923   0.2196489   0.1309694  -0.1015960  -0.1520744   0.1758641
    3   0.0687499  -0.0491284   0.0073553  -0.0357552   0.1255038  -0.1361456
            7           8           9          10
    1  -0.0221072  -0.0701865   0.0002366  -0.0111979
    2   0.0124156  -0.0889781   0.0116202  -0.0325774
    3   0.0228136   0.0388809  -0.0553131   0.0130388
 Max gradient component =       2.196E-01
 RMS gradient           =       8.893E-02
drvman.C: 248: out of SCF_Grad for normal SCF gradient
 Gradient time:  CPU 0.43 s  wall 0.43 s
 ------------------------------------------------------------------------------
                     drvman        : Timing summary (seconds)
 ------------------------------------------------------------------------------
     job step          cpu (% of tot)      sys (% of tot)     wall (% of tot)
 ------------------------------------------------------------------------------
 ------------------------------------------------------------------------------
   Grand Totals     0.4280E+00          0.1000E-05          0.4324E+00
[...]
   H (  4)  1.261134  2.264471  2.076748
   C (  5)  3.195994  1.953237  4.059402  3.620121
   C (  6)  3.903165  2.873216  4.815241  4.397855  1.269737
   H (  7)  3.355750  2.670005  4.247083  3.999429  1.898761  1.176998
   H (  8)  4.739584  3.563334  5.496796  5.383547  2.000781  1.151286
   H (  9)  2.126105  1.021093  2.261103  3.091467  2.411413  3.289542
   H ( 10)  4.767609  3.405844  5.526663  5.148193  1.628183  1.906384
             H (  7)   H (  8)   H (  9)
   H (  8)  1.915551
   H (  9)  3.135561  3.681036
   H ( 10)  3.004589  1.821544  3.557480

 Applying Cartesian multipole field
    Component          Value
    ---------          -----
     (2,0,0)        1.00000E-12
     (0,2,0)        2.00000E-11
     (0,0,2)       -3.00000E-10
 Nucleus-field energy     =    -0.0000000150 hartrees
 ENuRep (before)= 93.2976165928
 ENucField = -0.0000000150
 ENuRep (after) = 93.2976165778
 Job number = 2, Threshold = 1.00E-11
Integral type ranges set in mkLRange.C for JobNum: 2  <1-6|1-6>
Symmetry turned off temporarily
Symmetry turned back on
 Job number = 11, Threshold = 1.00E-11
Integral type ranges set in mkLRange.C for JobNum: 11  <1-6|7-7>
 Smallest overlap matrix eigenvalue = 1.63E-01
 Multipole matrices computed through 2nd order
 Extrapolating the Fock matrix using 12 points and a 6th-order polynomial
 Alpha Fock matrix extrapolation
 Skip SCF guess (diagonalize extrapolated Fock matrix instead)
 SCF convergence criterion is 10**(-8)
 A restricted Hartree-Fock SCF calculation will be
 performed using Pulay DIIS extrapolation
 SCF converges when DIIS error is below 1.0E-08
Extrapolated Fock matrix used in lieu of Fock build
Fock build time:  0.00 s (CPU) 0.00 s (wall)
DIIS Errors:  Max 1.01E-01 RMS 1.22E-02

Current DIIS subspace size = 1
REM_GRID_RESTART_DIIS = 0

 ---------------------------------------
  Cycle       Energy         DIIS Error
 ---------------------------------------
    1    -297.5921850330      1.22E-02  00000
Finding J and K together
 Job number = 22, Threshold = 1.00E-11
Integral type ranges set in mkLRange.C for JobNum: 22  <1-6|1-6>
 MakeJK  time:  CPU       0.12 s  wall       0.13 s
Fock build time:  0.13 s (CPU) 0.13 s (wall)
DIIS Errors:  Max 5.42E-02 RMS 6.34E-03

Current DIIS subspace size = 2
REM_GRID_RESTART_DIIS = 0

    2    -152.5363425167      6.34E-03  00000
Finding J and K together
 Job number = 22, Threshold = 1.00E-11
Integral type ranges set in mkLRange.C for JobNum: 22  <1-6|1-6>
 MakeJK  time:  CPU       0.14 s  wall       0.14 s
Fock build time:  0.14 s (CPU) 0.14 s (wall)
DIIS Errors:  Max 1.80E-02 RMS 2.17E-03

Current DIIS subspace size = 3
REM_GRID_RESTART_DIIS = 0

    3    -152.5371431327      2.17E-03  00000
Finding J and K together
 Job number = 22, Threshold = 1.00E-11
Integral type ranges set in mkLRange.C for JobNum: 22  <1-6|1-6>
 MakeJK  time:  CPU       0.11 s  wall       0.11 s
Fock build time:  0.11 s (CPU) 0.11 s (wall)
DIIS Errors:  Max 2.53E-03 RMS 3.81E-04

Current DIIS subspace size = 4
REM_GRID_RESTART_DIIS = 0

    4    -152.5372798098      3.81E-04  00000
Finding J and K together
 Job number = 22, Threshold = 1.00E-11
Integral type ranges set in mkLRange.C for JobNum: 22  <1-6|1-6>
 MakeJK  time:  CPU       0.14 s  wall       0.14 s
Fock build time:  0.14 s (CPU) 0.14 s (wall)
DIIS Errors:  Max 5.56E-04 RMS 8.30E-05

Current DIIS subspace size = 5
REM_GRID_RESTART_DIIS = 0

    5    -152.5372954753      8.30E-05  00000
Finding J and K together
 Job number = 22, Threshold = 1.00E-11
Integral type ranges set in mkLRange.C for JobNum: 22  <1-6|1-6>
 MakeJK  time:  CPU       0.11 s  wall       0.11 s
Fock build time:  0.12 s (CPU) 0.11 s (wall)
DIIS Errors:  Max 2.14E-04 RMS 3.12E-05

Current DIIS subspace size = 6
REM_GRID_RESTART_DIIS = 0

    6    -152.5372981207      3.12E-05  00000
Finding J and K together
 Job number = 22, Threshold = 1.00E-11
Integral type ranges set in mkLRange.C for JobNum: 22  <1-6|1-6>
 MakeJK  time:  CPU       0.18 s  wall       0.19 s
Fock build time:  0.18 s (CPU) 0.19 s (wall)
DIIS Errors:  Max 1.18E-04 RMS 1.76E-05

Current DIIS subspace size = 7
REM_GRID_RESTART_DIIS = 0

    7    -152.5372984277      1.76E-05  00000
Finding J and K together
 Job number = 22, Threshold = 1.00E-11
Integral type ranges set in mkLRange.C for JobNum: 22  <1-6|1-6>
 MakeJK  time:  CPU       0.18 s  wall       0.19 s
Fock build time:  0.18 s (CPU) 0.19 s (wall)
DIIS Errors:  Max 3.84E-05 RMS 5.38E-06

Current DIIS subspace size = 8
REM_GRID_RESTART_DIIS = 0

    8    -152.5372985465      5.38E-06  00000
Finding J and K together
 Job number = 22, Threshold = 1.00E-11
Integral type ranges set in mkLRange.C for JobNum: 22  <1-6|1-6>
 MakeJK  time:  CPU       0.18 s  wall       0.19 s
Fock build time:  0.19 s (CPU) 0.19 s (wall)
DIIS Errors:  Max 1.15E-05 RMS 1.86E-06

Current DIIS subspace size = 9
REM_GRID_RESTART_DIIS = 0

    9    -152.5372985609      1.86E-06  00000
Finding J and K together
 Job number = 22, Threshold = 1.00E-11
Integral type ranges set in mkLRange.C for JobNum: 22  <1-6|1-6>
 MakeJK  time:  CPU       0.16 s  wall       0.16 s
Fock build time:  0.16 s (CPU) 0.16 s (wall)
DIIS Errors:  Max 1.86E-06 RMS 4.03E-07

Current DIIS subspace size = 10
REM_GRID_RESTART_DIIS = 0

   10    -152.5372985626      4.03E-07  00000
Finding J and K together
 Job number = 22, Threshold = 1.00E-11
Integral type ranges set in mkLRange.C for JobNum: 22  <1-6|1-6>
 MakeJK  time:  CPU       0.18 s  wall       0.18 s
Fock build time:  0.18 s (CPU) 0.18 s (wall)
DIIS Errors:  Max 4.34E-07 RMS 7.38E-08

Current DIIS subspace size = 11
REM_GRID_RESTART_DIIS = 0

   11    -152.5372985626      7.38E-08  00000
Finding J and K together
 Job number = 22, Threshold = 1.00E-11
Integral type ranges set in mkLRange.C for JobNum: 22  <1-6|1-6>
 MakeJK  time:  CPU       0.11 s  wall       0.11 s
Fock build time:  0.11 s (CPU) 0.11 s (wall)
DIIS Errors:  Max 9.07E-08 RMS 1.88E-08

Current DIIS subspace size = 12
REM_GRID_RESTART_DIIS = 0

   12    -152.5372985626      1.88E-08  00000
Finding J and K together
 Job number = 22, Threshold = 1.00E-11
Integral type ranges set in mkLRange.C for JobNum: 22  <1-6|1-6>
 MakeJK  time:  CPU       0.17 s  wall       0.17 s
Fock build time:  0.17 s (CPU) 0.17 s (wall)
DIIS Errors:  Max 2.85E-08 RMS 5.60E-09

Current DIIS subspace size = 13
REM_GRID_RESTART_DIIS = 0

   13    -152.5372985626      5.60E-09  00000 Convergence criterion met
 ---------------------------------------
 SCF time:  CPU 1.83 s  wall 1.85 s
 SCF   energy in the final basis set = -152.53729856
 Total energy in the final basis set = -152.53729856
drvman_main.C: 73: calling DrvMan  Calculating analytic gradient of the SCF energy
drvman.C : 218: Calculating analytic gradient of the SCF energy
drvman.C: 244: calling SCF_Grad for normal SCF gradient
 Job number = 111, Threshold = 1.00E-11
Integral type ranges set in mkLRange.C for JobNum: 11  <1-6|7-7>
Finding J and K together
 ML is being used
 Job number = 122, Threshold = 1.00E-11
Integral type ranges set in mkLRange.C for JobNum: 22  <1-6|1-6>
 MakeJK  time:  CPU       0.46 s  wall       0.47 s
 Gradient of SCF Energy
            1           2           3           4           5           6
    1   0.0056297   0.0257722   0.0434854   0.0397634  -0.0541801   0.0126470
    2  -0.0012001  -0.1420582  -0.0562196   0.0869867   0.0536368   0.0967800
    3   0.1723528  -0.0643973  -0.0049756  -0.0522271   0.1632918  -0.1966103
            7           8           9          10
    1   0.0599186   0.0058064   0.0077195  -0.1465621
    2  -0.0232509  -0.0703392   0.0778173  -0.0221527
    3   0.0279041  -0.0190557   0.0124996  -0.0387823
 Max gradient component =       1.966E-01
 RMS gradient           =       8.007E-02
drvman.C: 248: out of SCF_Grad for normal SCF gradient
 Gradient time:  CPU 0.48 s  wall 0.49 s
 ------------------------------------------------------------------------------
                     drvman        : Timing summary (seconds)
 ------------------------------------------------------------------------------
     job step          cpu (% of tot)      sys (% of tot)     wall (% of tot)
 ------------------------------------------------------------------------------
 ------------------------------------------------------------------------------
   Grand Totals     0.4760E+00          0.3000E-05          0.4933E+00
 ------------------------------------------------------------------------------
drvman_main.C: 77: out of DrvMan  Time for this dynamics step: 2.3 s (CPU) 2.4 s (wall)

TIME STEP #400 (t = 7980.000 a.u. = 193.02697 fs)
--------------------------------------
 Instantaneous Temperature = 5572.4 K
 ----------------------------------------------------------------
             Standard Nuclear Orientation (Angstroms)
    I     Atom           X                Y                Z
 ----------------------------------------------------------------
    1      C       4.6510255511     0.6765736935     0.8817540728
    2      C       3.7133058870     0.1610490247    -0.1133030782
    3      H       5.4909507479    -0.1311289672     1.0585002438
    4      H       5.1262174098     1.8532623381     0.5778790349
    5      C       1.9649509325     0.6634773372    -0.8201289950
    6      C       0.8855838432     0.6556968227    -0.1597286349
    7      H       1.3099369352     0.5225835945     0.9799952050
    8      H       0.2221079082    -0.1606182138    -0.4657985681
    9      H       3.8376244939    -0.8474483504    -0.3243355471
   10      H       0.8734267549     0.3192064644    -1.9923853330
 ----------------------------------------------------------------
 Nuclear Repulsion Energy =    93.4080341425 hartrees
 There are       15 alpha and       15 beta electrons

                       Distance Matrix (Angstroms)
             C (  1)   C (  2)   H (  3)   H (  4)   C (  5)   C (  6)
   C (  2)  1.461240
   H (  3)  1.178600  2.149072
   H (  4)  1.304892  2.310333  2.074087
   C (  5)  3.179870  1.951610  4.073490  3.655629
   C (  6)  3.906875  2.871035  4.828310  4.467796  1.265394
   H (  7)  3.346078  2.664994  4.232538  4.061576  1.920766  1.223424
   H (  8)  4.704477  3.523661  5.484985  5.403265  1.960149  1.095559
   H (  9)  2.106874  1.037813  2.271307  3.125428  2.456749  3.316788
   H ( 10)  4.760109  3.408941  5.552678  5.200559  1.638332  1.863331
             H (  7)   H (  8)   H (  9)
   H (  8)  1.934026
   H (  9)  3.157130  3.682894
   H ( 10)  3.011138  1.727691  3.595823

 Applying Cartesian multipole field
    Component          Value
    ---------          -----
     (2,0,0)        1.00000E-12
     (0,2,0)        2.00000E-11
     (0,0,2)       -3.00000E-10
 Nucleus-field energy     =    -0.0000000147 hartrees
 ENuRep (before)= 93.4080341425
 ENucField = -0.0000000147
 ENuRep (after) = 93.4080341278
 Job number = 2, Threshold = 1.00E-11
Integral type ranges set in mkLRange.C for JobNum: 2  <1-6|1-6>
Symmetry turned off temporarily
Symmetry turned back on
 Job number = 11, Threshold = 1.00E-11
Integral type ranges set in mkLRange.C for JobNum: 11  <1-6|7-7>
 Smallest overlap matrix eigenvalue = 1.61E-01
 Multipole matrices computed through 2nd order
 Extrapolating the Fock matrix using 12 points and a 6th-order polynomial
 Alpha Fock matrix extrapolation
 Skip SCF guess (diagonalize extrapolated Fock matrix instead)
 SCF convergence criterion is 10**(-8)
 A restricted Hartree-Fock SCF calculation will be
 performed using Pulay DIIS extrapolation
 SCF converges when DIIS error is below 1.0E-08
Extrapolated Fock matrix used in lieu of Fock build
Fock build time:  0.00 s (CPU) 0.00 s (wall)
DIIS Errors:  Max 1.18E-01 RMS 1.37E-02

Current DIIS subspace size = 1
REM_GRID_RESTART_DIIS = 0

 ---------------------------------------
  Cycle       Energy         DIIS Error
 ---------------------------------------
    1    -297.7591104057      1.37E-02  00000
Finding J and K together
 Job number = 22, Threshold = 1.00E-11
Integral type ranges set in mkLRange.C for JobNum: 22  <1-6|1-6>
 MakeJK  time:  CPU       0.18 s  wall       0.18 s
Fock build time:  0.18 s (CPU) 0.18 s (wall)
DIIS Errors:  Max 9.82E-02 RMS 9.55E-03

Current DIIS subspace size = 2
REM_GRID_RESTART_DIIS = 0

    2    -152.5172713296      9.55E-03  00000
Finding J and K together
 Job number = 22, Threshold = 1.00E-11
Integral type ranges set in mkLRange.C for JobNum: 22  <1-6|1-6>
 MakeJK  time:  CPU       0.18 s  wall       0.18 s
Fock build time:  0.18 s (CPU) 0.18 s (wall)
DIIS Errors:  Max 4.17E-02 RMS 4.10E-03

Current DIIS subspace size = 3
REM_GRID_RESTART_DIIS = 0

    3    -152.5187265260      4.10E-03  00000
Finding J and K together
 Job number = 22, Threshold = 1.00E-11
Integral type ranges set in mkLRange.C for JobNum: 22  <1-6|1-6>
 MakeJK  time:  CPU       0.18 s  wall       0.19 s
Fock build time:  0.18 s (CPU) 0.19 s (wall)
DIIS Errors:  Max 1.89E-03 RMS 3.09E-04

Current DIIS subspace size = 4
REM_GRID_RESTART_DIIS = 0

    4    -152.5190885508      3.09E-04  00000
Finding J and K together
 Job number = 22, Threshold = 1.00E-11
Integral type ranges set in mkLRange.C for JobNum: 22  <1-6|1-6>
 MakeJK  time:  CPU       0.18 s  wall       0.18 s
Fock build time:  0.18 s (CPU) 0.18 s (wall)
DIIS Errors:  Max 4.38E-04 RMS 7.74E-05

Current DIIS subspace size = 5
REM_GRID_RESTART_DIIS = 0

    5    -152.5190985812      7.74E-05  00000
Finding J and K together
 Job number = 22, Threshold = 1.00E-11
Integral type ranges set in mkLRange.C for JobNum: 22  <1-6|1-6>
 MakeJK  time:  CPU       0.18 s  wall       0.18 s
Fock build time:  0.18 s (CPU) 0.18 s (wall)
DIIS Errors:  Max 8.25E-05 RMS 1.58E-05

Current DIIS subspace size = 6
REM_GRID_RESTART_DIIS = 0

    6    -152.5190998412      1.58E-05  00000
Finding J and K together
 Job number = 22, Threshold = 1.00E-11
Integral type ranges set in mkLRange.C for JobNum: 22  <1-6|1-6>
 MakeJK  time:  CPU       0.18 s  wall       0.18 s
Fock build time:  0.18 s (CPU) 0.18 s (wall)
DIIS Errors:  Max 6.57E-05 RMS 6.63E-06

Current DIIS subspace size = 7
REM_GRID_RESTART_DIIS = 0

    7    -152.5190999221      6.63E-06  00000
Finding J and K together
 Job number = 22, Threshold = 1.00E-11
Integral type ranges set in mkLRange.C for JobNum: 22  <1-6|1-6>
 MakeJK  time:  CPU       0.13 s  wall       0.13 s
Fock build time:  0.13 s (CPU) 0.13 s (wall)
DIIS Errors:  Max 1.38E-05 RMS 3.58E-06

Current DIIS subspace size = 8
REM_GRID_RESTART_DIIS = 0

    8    -152.5190999350      3.58E-06  00000
Finding J and K together
 Job number = 22, Threshold = 1.00E-11
Integral type ranges set in mkLRange.C for JobNum: 22  <1-6|1-6>
 MakeJK  time:  CPU       0.11 s  wall       0.11 s
Fock build time:  0.11 s (CPU) 0.11 s (wall)
DIIS Errors:  Max 5.92E-06 RMS 9.94E-07

Current DIIS subspace size = 9
REM_GRID_RESTART_DIIS = 0

    9    -152.5190999381      9.94E-07  00000
Finding J and K together
 Job number = 22, Threshold = 1.00E-11
Integral type ranges set in mkLRange.C for JobNum: 22  <1-6|1-6>
 MakeJK  time:  CPU       0.16 s  wall       0.16 s
Fock build time:  0.16 s (CPU) 0.16 s (wall)
DIIS Errors:  Max 2.19E-06 RMS 3.54E-07

Current DIIS subspace size = 10
REM_GRID_RESTART_DIIS = 0

   10    -152.5190999385      3.54E-07  00000
Finding J and K together
 Job number = 22, Threshold = 1.00E-11
Integral type ranges set in mkLRange.C for JobNum: 22  <1-6|1-6>
 MakeJK  time:  CPU       0.18 s  wall       0.18 s
Fock build time:  0.18 s (CPU) 0.18 s (wall)
DIIS Errors:  Max 7.40E-07 RMS 8.93E-08

Current DIIS subspace size = 11
REM_GRID_RESTART_DIIS = 0

   11    -152.5190999385      8.93E-08  00000
Finding J and K together
 Job number = 22, Threshold = 1.00E-11
Integral type ranges set in mkLRange.C for JobNum: 22  <1-6|1-6>
 MakeJK  time:  CPU       0.18 s  wall       0.19 s
Fock build time:  0.18 s (CPU) 0.19 s (wall)
DIIS Errors:  Max 2.11E-07 RMS 2.73E-08

Current DIIS subspace size = 12
REM_GRID_RESTART_DIIS = 0

   12    -152.5190999385      2.73E-08  00000
Finding J and K together
 Job number = 22, Threshold = 1.00E-11
Integral type ranges set in mkLRange.C for JobNum: 22  <1-6|1-6>
 MakeJK  time:  CPU       0.18 s  wall       0.18 s
Fock build time:  0.18 s (CPU) 0.18 s (wall)
DIIS Errors:  Max 5.59E-08 RMS 9.76E-09

Current DIIS subspace size = 13
REM_GRID_RESTART_DIIS = 0

   13    -152.5190999385      9.76E-09  00000 Convergence criterion met
 ---------------------------------------
 SCF time:  CPU 2.05 s  wall 2.07 s
 SCF   energy in the final basis set = -152.51909994
 Total energy in the final basis set = -152.51909994
drvman_main.C: 73: calling DrvMan  Calculating analytic gradient of the SCF energy
drvman.C : 218: Calculating analytic gradient of the SCF energy
drvman.C: 244: calling SCF_Grad for normal SCF gradient
 Job number = 111, Threshold = 1.00E-11
Integral type ranges set in mkLRange.C for JobNum: 11  <1-6|7-7>
Finding J and K together
 ML is being used
 Job number = 122, Threshold = 1.00E-11
Integral type ranges set in mkLRange.C for JobNum: 22  <1-6|1-6>
 MakeJK  time:  CPU       0.48 s  wall       0.53 s
 Gradient of SCF Energy
            1           2           3           4           5           6
    1  -0.0078891   0.0201162   0.0433514   0.0531011  -0.0606827  -0.0151579
    2  -0.0246845  -0.1228115  -0.0472950   0.0972070   0.0613332   0.0660341
    3   0.1635862  -0.0572372   0.0008492  -0.0542957   0.1666245  -0.2350673
            7           8           9          10
    1   0.0695249   0.0331741   0.0139929  -0.1495307
    2  -0.0211166  -0.0410240   0.0585633  -0.0262061
    3   0.0487657  -0.0156641   0.0089931  -0.0265544
 Max gradient component =       2.351E-01
 RMS gradient           =       8.139E-02
drvman.C: 248: out of SCF_Grad for normal SCF gradient
 Gradient time:  CPU 0.50 s  wall 0.55 s
 ------------------------------------------------------------------------------
                     drvman        : Timing summary (seconds)
 ------------------------------------------------------------------------------
     job step          cpu (% of tot)      sys (% of tot)     wall (% of tot)
 ------------------------------------------------------------------------------
 ------------------------------------------------------------------------------
   Grand Totals     0.4960E+00          0.3000E-05          0.5527E+00
 ------------------------------------------------------------------------------
drvman_main.C: 77: out of DrvMan  Time for this dynamics step: 2.6 s (CPU) 2.7 s (wall)

=============== TIME STEPS COMPLETED ==================

Step-to-Step energy fluctuations, |E(n) - E(n-1)|
Mean: -3.196e-06   Max: 5.330e-03   RMS: 1.003e-03
Overall energy fluctuations, |E(n) - E(0)|
Mean: -1.772e-03   Max: 6.103e-03   RMS: 1.150e-03   RMS(dE)/RMS(dV): 1.324e-02
Kinetic energy fluctuations, |T(n) - V(0)|
Mean: 3.246e-01   Max: 5.696e-01   RMS: 8.622e-02
Potential energy fluctuations, |V(n) - V(0)|
Mean: -3.264e-01   Max: 5.726e-01   RMS: 8.684e-02


 JobOver = TRUE
Archival summary:
1\1\qciep03\JobtypUnspecified\HF\STO-3G\46\jcartus\MonJun1812:47:142018MonJun1812:47:142018\0\\#,JobtypUnspecified,HF,STO-3G,\\0,1\C\C,1,1.26539\H,2,1.09556,1,112.046\H,2,1.22342,1,101.011,3,120.439,0\H,1,1.63833,2,78.6873,3,40.9632,0\C,1,1.95161,2,124.998,3,-108.157,0\H,6,1.03781,1,106.489,2,92.8848,0\C,6,1.46124,1,136.945,2,-66.2842,0\H,8,1.1786,6,108.522,1,169.77,0\H,8,1.30489,6,113.157,1,-63.752,0\\HF=-152.5191\\@

 Total job time:  1106.01s(wall), 1071.38s(cpu) 
 Mon Jun 18 12:47:14 2018

        *************************************************************
        *                                                           *
        *  Thank you very much for using Q-Chem.  Have a nice day.  *
        *                                                           *
        *************************************************************


*** MISSION COMPLETED -- STARFLEET OUT ***

0 sent ACK to 0 
now end server 0 ... 
