Process 0 of 1 is on qciep03 - thread support 0
initial socket setup ...start
initial socket setup ...done 
now start server 0 ... 
qciep03.tugraz.at 127.0.1
Q-Chem Developer Version! Running on 127.0.1.*
                  Welcome to Q-Chem
     A Quantum Leap Into The Future Of Chemistry


 Q-Chem 5.0, Q-Chem, Inc., Pleasanton, CA (2017)

 Yihan Shao,  Zhengting Gan,  E. Epifanovsky,  A. T. B. Gilbert,  M. Wormit,  
 J. Kussmann,  A. W. Lange,  A. Behn,  Jia Deng,  Xintian Feng,  D. Ghosh,  
 M. Goldey,  P. R. Horn,  L. D. Jacobson,  I. Kaliman,  T. Kus,  A. Landau,  
 Jie Liu,  E. I. Proynov,  R. M. Richard,  R. P. Steele,  E. J. Sundstrom,  
 H. L. Woodcock III,  P. M. Zimmerman,  D. Zuev,  B. Albrecht,  E. Alguire,  
 S. A. Baeppler,  D. Barton,  Z. Benda,  Y. A. Bernard,  E. J. Berquist,  
 K. B. Bravaya,  H. Burton,  D. Casanova,  Chun-Min Chang,  Yunqing Chen,  
 A. Chien,  K. D. Closser,  M. P. Coons,  S. Dasgupta,  A. L. Dempwolff,  
 M. Diedenhofen,  Hainam Do,  R. G. Edgar,  Po-Tung Fang,  S. Fatehi,  
 Qingguo Feng,  J. Fosso-Tande,  Qinghui Ge,  A. Ghysels,  G. Gidofalvi,  
 J. Gomes,  J. Gonthier,  A. Gunina,  M. W. D. Hanson-Heine,  
 P. H. P. Harbach,  A. W. Hauser,  J. E. Herr,  E. G. Hohenstein,  
 Z. C. Holden,  Kerwin Hui,  T.-C. Jagau,  Hyunjun Ji,  B. Kaduk,  
 K. Khistyaev,  Jaehoon Kim,  P. Klunzinger,  K. Koh,  D. Kosenkov,  
 L. Koulias,  T. Kowalczyk,  C. M. Krauter,  A. Kunitsa,  Ka Un Lao,  
 A. Laurent,  K. V. Lawler,  Joonho Lee,  D. Lefrancois,  S. Lehtola,  
 D. S. Levine,  Yi-Pei Li,  You-Sheng Lin,  Fenglai Liu,  E. Livshits,  
 A. Luenser,  P. Manohar,  E. Mansoor,  S. F. Manzer,  Shan-Ping Mao,  
 Yuezhi Mao,  N. Mardirossian,  A. V. Marenich,  T. Markovich,  
 L. A. Martinez-Martinez,  S. A. Maurer,  N. J. Mayhall,  S. C. McKenzie,  
 J.-M. Mewes,  A. F. Morrison,  J. W. Mullinax,  K. Nanda,  
 T. S. Nguyen-Beck,  R. Olivares-Amaya,  J. A. Parkhill,  T. M. Perrine,  
 F. Plasser,  S. Prager,  A. Prociuk,  E. Ramos,  D. R. Rehn,  F. Rob,  
 M. Schneider,  N. Sergueev,  S. M. Sharada,  S. Sharma,  D. W. Small,  
 T. Stauch,  T. Stein,  Yu-Chuan Su,  A. J. W. Thom,  A. Tkatchenko,  
 T. Tsuchimochi,  L. Vogt,  O. Vydrov,  M. A. Watson,  J. Wenzel,  
 M. de Wergifosse,  T. A. Wesolowski,  A. White,  J. Witte,  A. Yamada,  
 Jun Yang,  K. Yao,  S. Yeganeh,  S. R. Yost,  Zhi-Qiang You,  A. Zech,  
 Igor Ying Zhang,  Xing Zhang,  Yan Zhao,  Ying Zhu,  B. R. Brooks,  
 G. K. L. Chan,  C. J. Cramer,  M. S. Gordon,  W. J. Hehre,  A. Klamt,  
 M. W. Schmidt,  C. D. Sherrill,  D. G. Truhlar,  A. Aspuru-Guzik,  R. Baer,  
 A. T. Bell,  N. A. Besley,  Jeng-Da Chai,  R. A. DiStasio Jr.,  A. Dreuw,  
 B. D. Dunietz,  T. R. Furlani,  Chao-Ping Hsu,  Yousung Jung,  Jing Kong,  
 D. S. Lambrecht,  WanZhen Liang,  C. Ochsenfeld,  V. A. Rassolov,  
 L. V. Slipchenko,  J. E. Subotnik,  T. Van Voorhis,  J. M. Herbert,  
 A. I. Krylov,  P. M. W. Gill,  M. Head-Gordon

 Contributors to earlier versions of Q-Chem not listed above: 
 R. D. Adamson,  B. Austin,  J. Baker,  G. J. O. Beran,  K. Brandhorst,  
 S. T. Brown,  E. F. C. Byrd,  A. K. Chakraborty,  C.-L. Cheng,  
 Siu Hung Chien,  D. M. Chipman,  D. L. Crittenden,  H. Dachsel,  
 R. J. Doerksen,  A. D. Dutoi,  L. Fusti-Molnar,  W. A. Goddard III,  
 A. Golubeva-Zadorozhnaya,  S. R. Gwaltney,  G. Hawkins,  A. Heyden,  
 S. Hirata,  G. Kedziora,  F. J. Keil,  C. Kelley,  Jihan Kim,  R. A. King,  
 R. Z. Khaliullin,  P. P. Korambath,  W. Kurlancheek,  A. M. Lee,  M. S. Lee,  
 S. V. Levchenko,  Ching Yeh Lin,  D. Liotard,  R. C. Lochan,  I. Lotan,  
 P. E. Maslen,  N. Nair,  D. P. O'Neill,  D. Neuhauser,  E. Neuscamman,  
 C. M. Oana,  R. Olson,  B. Peters,  R. Peverati,  P. A. Pieniazek,  
 Y. M. Rhee,  J. Ritchie,  M. A. Rohrdanz,  E. Rosta,  N. J. Russ,  
 H. F. Schaefer III,  N. E. Schultz,  N. Shenvi,  A. C. Simmonett,  A. Sodt,  
 D. Stuck,  K. S. Thanthiriwatte,  V. Vanovschi,  Tao Wang,  A. Warshel,  
 C. F. Williams,  Q. Wu,  X. Xu,  W. Zhang

 Please cite Q-Chem as follows:
 Y. Shao et al., Mol. Phys. 113, 184-215 (2015)
 DOI: 10.1080/00268976.2014.952696

 Q-Chem 5.0.2 for Intel X86 EM64T Linux

 Parts of Q-Chem use Armadillo 5.200.1 (Boston Tea Smuggler).
 http://arma.sourceforge.net/

 Q-Chem begins on Mon Jun 18 12:41:36 2018  


Host: 0

     Scratch files written to /home/jcartus/scratch/Butadien_23.mol.dir//
 Using version located at /usr/local/qchem/bin/qchem

 Parallel job on  1  processors
Symmetry disabled for AIMD jobs.

Total Memory Limit in MB = 2000
Mega-Array Size in MB = 192

Checking the input file for inconsistencies... 	...done.
Finally everything over in PARseQInput

--------------------------------------------------------------
User input:
--------------------------------------------------------------
$rem
AIMD_STEPS                    400
FOCK_EXTRAP_POINTS            12
MAX_SCF_CYCLES                100
BASIS                         sto-3g
AIMD_INIT_VELOC               thermal
FOCK_EXTRAP_ORDER             6
AIMD_TEMP                     400
AIMD_METHOD                   bomd
TIME_STEP                     20
METHOD                        hf
JOBTYPE                       aimd
$end

$molecule
0 1
C    4.65624    -0.40786    -1.02945
C    3.71370    0.22768    -1.73521
H    5.49078    -0.91499    -1.50224
H    4.60695    -0.43608    0.05435
C    3.65851    0.30322    -3.17536
C    4.71810    0.40315    -3.98727
H    4.58302    0.48022    -5.06135
H    5.73608    0.41487    -3.61217
H    2.88326    0.69319    -1.20725
H    2.65946    0.32682    -3.60719
$end


--------------------------------------------------------------
 ----------------------------------------------------------------
             Standard Nuclear Orientation (Angstroms)
    I     Atom           X                Y                Z
 ----------------------------------------------------------------
    1      C       4.6562400000    -0.4078600000    -1.0294500000
    2      C       3.7137000000     0.2276800000    -1.7352100000
    3      H       5.4907800000    -0.9149900000    -1.5022400000
    4      H       4.6069500000    -0.4360800000     0.0543500000
    5      C       3.6585100000     0.3032200000    -3.1753600000
    6      C       4.7181000000     0.4031500000    -3.9872700000
    7      H       4.5830200000     0.4802200000    -5.0613500000
    8      H       5.7360800000     0.4148700000    -3.6121700000
    9      H       2.8832600000     0.6931900000    -1.2072500000
   10      H       2.6594600000     0.3268200000    -3.6071900000
 ----------------------------------------------------------------
 Nuclear Repulsion Energy =   105.2552398194 hartrees
 There are       15 alpha and       15 beta electrons
 Requested basis set is STO-3G
 There are 14 shells and 26 basis functions

 Total QAlloc Memory Limit   2000 MB
 Mega-Array Size       188 MB
 MEM_STATIC part       192 MB

finished with qalloc call

                       Distance Matrix (Angstroms)
             C (  1)   C (  2)   H (  3)   H (  4)   C (  5)   C (  6)
   C (  2)  1.338055
   H (  3)  1.084974  2.125555
   H (  4)  1.085287  2.107368  1.852966
   C (  5)  2.471038  1.443185  2.764160  3.446321
   C (  6)  3.067615  2.472121  2.917174  4.129328  1.338624
   H (  7)  4.129197  3.447129  3.929110  5.197169  2.107844  1.085281
   H (  8)  2.917770  2.765509  2.506093  3.929684  2.125927  1.084952
   H (  9)  2.094608  1.088610  3.077730  2.416194  2.150941  3.343542
   H ( 10)  3.342399  2.150711  3.740225  4.216825  1.088639  2.094824
             H (  7)   H (  8)   H (  9)
   H (  8)  1.853089
   H (  9)  4.217657  3.741615
   H ( 10)  2.416236  3.077884  2.438037

 Job number = 2, Threshold = 1.00E-11
Integral type ranges set in mkLRange.C for JobNum: 2  <1-6|1-6>
Symmetry turned off temporarily
 Using the largest function pair in Schwarz integrals
Total number of integrals generated =            3252
Symmetry turned back on
 A cutoff of  1.0D-11 yielded    102 shell pairs
 There are       372 function pairs
 Job number = 11, Threshold = 1.00E-11
Integral type ranges set in mkLRange.C for JobNum: 11  <1-6|7-7>
Total number of integrals generated =            3720
 Smallest overlap matrix eigenvalue = 1.81E-01
 Multipole matrices computed through 2nd order

 Scale SEOQF with 1.000000e-02/1.000000e+00/1.000000e-01

 Standard Electronic Orientation quadrupole field applied
 Nucleus-field energy     =    -0.0000000198 hartrees
 ENuRep (before)= 105.2552398194
 ENucField = -0.0000000198
 ENuRep (after) = 105.2552397996
 Guess from superposition of atomic densities
 Warning:  Energy on first SCF cycle will be non-variational
 SAD guess density has 30.000000 electrons

 ==================================================
    GEN_SCFMAN: A general SCF calculation manager  
                                                   
    Authors:                                       
        -- Eric Jon Sundstrom 2008-2014            
        -- Paul Horn 2010-2015                     
        -- Yuezhi Mao 2012-                        
        -- Dmitri Zuev 2014                        
        -- Alec White 2015-                        
        -- David Stuck 2015                        
        -- Shaama M.S. 2015                        
        -- Shane Yost 2015-                         
        -- Joonho Lee 2016-                        
        -- David Small 2016-                       
        -- Daniel Levine 2016-                     
        -- Susi Lehtola 2017-                      
        -- Hugh Burton 2017-                       
 ==================================================
 Hartree-Fock
Finding J and K together
 Job number = 22, Threshold = 1.00E-11
Integral type ranges set in mkLRange.C for JobNum: 22  <1-6|1-6>
 MakeJK  time:  CPU       0.15 s  wall       0.16 s
 A restricted SCF calculation will be
 performed using DIIS
 SCF converges when DIIS error is below 1.0e-08
 ---------------------------------------
  Cycle       Energy         DIIS error
 ---------------------------------------
Finding J and K together
 Job number = 22, Threshold = 1.00E-11
Integral type ranges set in mkLRange.C for JobNum: 22  <1-6|1-6>
 MakeJK  time:  CPU       0.20 s  wall       0.21 s
    1    -152.6400851228      2.15e-01  
Finding J and K together
 Job number = 22, Threshold = 1.00E-11
Integral type ranges set in mkLRange.C for JobNum: 22  <1-6|1-6>
 MakeJK  time:  CPU       0.19 s  wall       0.20 s
    2    -152.9872787806      1.29e-02  
Finding J and K together
 Job number = 22, Threshold = 1.00E-11
Integral type ranges set in mkLRange.C for JobNum: 22  <1-6|1-6>
 MakeJK  time:  CPU       0.20 s  wall       0.21 s
    3    -153.0106438206      3.56e-03  
Finding J and K together
 Job number = 22, Threshold = 1.00E-11
Integral type ranges set in mkLRange.C for JobNum: 22  <1-6|1-6>
 MakeJK  time:  CPU       0.19 s  wall       0.21 s
    4    -153.0123164552      1.53e-03  
Finding J and K together
 Job number = 22, Threshold = 1.00E-11
Integral type ranges set in mkLRange.C for JobNum: 22  <1-6|1-6>
 MakeJK  time:  CPU       0.19 s  wall       0.20 s
    5    -153.0125550348      9.53e-05  
Finding J and K together
 Job number = 22, Threshold = 1.00E-11
Integral type ranges set in mkLRange.C for JobNum: 22  <1-6|1-6>
 MakeJK  time:  CPU       0.20 s  wall       0.20 s
    6    -153.0125581799      1.79e-05  
Finding J and K together
 Job number = 22, Threshold = 1.00E-11
Integral type ranges set in mkLRange.C for JobNum: 22  <1-6|1-6>
 MakeJK  time:  CPU       0.20 s  wall       0.20 s
    7    -153.0125582996      2.62e-06  
Finding J and K together
 Job number = 22, Threshold = 1.00E-11
Integral type ranges set in mkLRange.C for JobNum: 22  <1-6|1-6>
 MakeJK  time:  CPU       0.19 s  wall       0.20 s
    8    -153.0125583013      5.50e-07  
Finding J and K together
 Job number = 22, Threshold = 1.00E-11
Integral type ranges set in mkLRange.C for JobNum: 22  <1-6|1-6>
 MakeJK  time:  CPU       0.19 s  wall       0.19 s
    9    -153.0125583014      1.91e-07  
Finding J and K together
 Job number = 22, Threshold = 1.00E-11
Integral type ranges set in mkLRange.C for JobNum: 22  <1-6|1-6>
 MakeJK  time:  CPU       0.19 s  wall       0.19 s
   10    -153.0125583014      6.84e-08  
Finding J and K together
 Job number = 22, Threshold = 1.00E-11
Integral type ranges set in mkLRange.C for JobNum: 22  <1-6|1-6>
 MakeJK  time:  CPU       0.20 s  wall       0.20 s
   11    -153.0125583014      1.41e-08  
   12    -153.0125583014      2.34e-09  Convergence criterion met
 ---------------------------------------
 SCF time:   CPU 2.30s  wall 2.00s 
 Total energy in the final basis set =     -153.0125583014
Wall  1 = 2
Clock 1 = 2.2993109226
 ==================================================
                  Done GEN_SCFMAN                  
 ==================================================

Symmetry turned off temporarily

 --------------------------------------------------------------

                    Orbital Energies (a.u.)
 --------------------------------------------------------------

 Alpha MOs
 -- Occupied --
-11.030 -11.030 -11.017 -11.017  -1.035  -0.935  -0.792  -0.679
 -0.625  -0.552  -0.541  -0.475  -0.444  -0.377  -0.269
 -- Virtual --
  0.251   0.398   0.611   0.638   0.676   0.707   0.740   0.860
  0.935   1.011   1.076
 --------------------------------------------------------------

          Ground-State Mulliken Net Atomic Charges

     Atom                 Charge (a.u.)
  ----------------------------------------
      1 C                    -0.124340
      2 C                    -0.060567
      3 H                     0.062328
      4 H                     0.061731
      5 C                    -0.060465
      6 C                    -0.124378
      7 H                     0.061740
      8 H                     0.062286
      9 H                     0.060876
     10 H                     0.060788
  ----------------------------------------
  Sum of atomic charges =    -0.000000

 -----------------------------------------------------------------
                    Cartesian Multipole Moments
 -----------------------------------------------------------------
    Charge (ESU x 10^10)
                 0.0000
    Dipole Moment (Debye)
         X      -0.0535      Y       0.0140      Z       0.0033
       Tot       0.0554
    Quadrupole Moments (Debye-Ang)
        XX     -22.9588     XY      -0.5956     YY     -24.7321
        XZ       0.1064     YZ      -0.1337     ZZ     -22.5949
    Octopole Moments (Debye-Ang^2)
       XXX    -287.6804    XXY      -7.9142    XYY    -104.1358
       YYY      -9.4418    XXZ      56.2926    XYZ       0.3649
       YYZ      61.7787    XZZ     -95.8524    YZZ      -2.0065
       ZZZ     168.3498
    Hexadecapole Moments (Debye-Ang^3)
      XXXX   -2500.6538   XXXY     -60.4551   XXYY    -459.6529
      XYYY     -31.9565   YYYY     -43.9189   XXXZ     709.3085
      XXYZ      20.6750   XYYZ     260.8206   YYYZ      50.1174
      XXZZ    -600.5760   XYZZ      -7.1841   YYZZ    -206.4089
      XZZZ     715.8718   YZZZ      39.8652   ZZZZ   -1076.6359
 -----------------------------------------------------------------
drvman_main.C: 73: calling DrvMan  Calculating analytic gradient of the SCF energy
drvman.C : 218: Calculating analytic gradient of the SCF energy
drvman.C: 244: calling SCF_Grad for normal SCF gradient
 Job number = 111, Threshold = 1.00E-11
Integral type ranges set in mkLRange.C for JobNum: 11  <1-6|7-7>
Finding J and K together
 ML is being used
 Job number = 122, Threshold = 1.00E-11
Integral type ranges set in mkLRange.C for JobNum: 22  <1-6|1-6>
Total number of integrals generated =           70661
 MakeJK  time:  CPU       0.50 s  wall       0.50 s
 Gradient of SCF Energy
            1           2           3           4           5           6
    1   0.0253257  -0.0231598   0.0027507  -0.0029478  -0.0261717   0.0306489
    2  -0.0194556   0.0236904  -0.0010921   0.0007805  -0.0106986   0.0047181
    3   0.0150494  -0.0607239  -0.0022205   0.0035037   0.0639362  -0.0186318
            7           8           9          10
    1  -0.0032628   0.0030995  -0.0027862  -0.0034965
    2   0.0008848  -0.0004913   0.0020634  -0.0003996
    3  -0.0031820   0.0019242   0.0005781  -0.0002333
 Max gradient component =       6.394E-02
 RMS gradient           =       2.027E-02
drvman.C: 248: out of SCF_Grad for normal SCF gradient
 Gradient time:  CPU 0.51 s  wall 0.53 s
 ------------------------------------------------------------------------------
                     drvman        : Timing summary (seconds)
 ------------------------------------------------------------------------------
     job step          cpu (% of tot)      sys (% of tot)     wall (% of tot)
 ------------------------------------------------------------------------------
 ------------------------------------------------------------------------------
   Grand Totals     0.5120E+00          0.2000E-05          0.5263E+00
 ------------------------------------------------------------------------------
drvman_main.C: 77: out of DrvMan =======================================================
            AB INITIO MOLECULAR DYNAMICS
=======================================================
Created directory /home/jcartus/scratch/Butadien_23.mol.dir/AIMD
AIMD will take 400 BOMD steps Velocity Verlet integration
Time step = 20.00000 a.u. ( = 0.48378 fs)
Total simulation time requested = 193.511 fs
Integral threshold = 10**(-11)
SCF convergence threshold = 10**(-8)
Generating viewable xyz trajectory,
 file (in Angstroms) at AIMD/View.xyz
Choosing nuclear velocities from Maxwell-Boltzmann
Velocities sampled from Maxwell-Boltzmann at T = 400.0 K
sqrt(kT/m) and (vx,vy,vz) for each atom:
  1   2.4064e-04  -1.07e-04   4.28e-04  -2.09e-04 
  2   2.4064e-04   1.23e-04  -3.94e-05  -1.21e-04 
  3   8.3036e-04   9.58e-04  -1.82e-06   1.64e-03 
  4   8.3036e-04  -4.83e-05   1.43e-03  -1.29e-03 
  5   2.4064e-04   1.57e-04  -9.89e-05  -7.38e-05 
  6   2.4064e-04  -1.71e-05  -7.78e-05   2.86e-04 
  7   8.3036e-04   1.98e-03  -4.65e-04   6.46e-04 
  8   8.3036e-04   5.19e-04  -1.60e-04   2.41e-04 
  9   8.3036e-04  -8.41e-04   1.35e-03   8.69e-04 
 10   8.3036e-04  -5.01e-04   8.19e-05   4.44e-04 
T(nuclear) = 0.01901238 a.u.
v(c.o.m.) = (  7.3073e-05,   8.8793e-05,   2.1387e-05)
T(c.o.m.) = 6.73954e-04 a.u.
kT/2 = 0.000633 a.u.
Tx   = 0.006127 a.u.
Ty   = 0.005985 a.u.
Tz   = 0.006901 a.u.
Mean velocities (a.u.):   2.2197e-04   2.4510e-04   2.4306e-04
Removing c.o.m. velocity
T(nuclear) = 0.01704800 a.u.
v(c.o.m.) = (  4.5075e-21,  -1.0142e-20,  -1.6903e-20)
T(c.o.m.) = 2.01426e-35 a.u.
kT   = 0.001267 a.u. = 0.79 kcal/mol
Tx   = 0.005423 a.u. = 3.40 kcal/mol
Ty   = 0.005160 a.u. = 3.24 kcal/mol
Tz   = 0.006465 a.u. = 4.06 kcal/mol
Initial velocities in m/s
  1     -3.0640e+02      8.4877e+02     -4.7893e+02 
  2      1.9808e+02     -1.7375e+02     -2.8536e+02 
  3      1.2392e+03     -1.0457e+03      3.3346e+03 
  4     -9.6300e+02      2.0958e+03     -3.0730e+03 
  5      2.7043e+02     -3.0387e+02     -1.8262e+02 
  6     -1.0933e+02     -2.5761e+02      6.0513e+02 
  7      3.4677e+03     -2.0587e+03      1.1620e+03 
  8      2.7780e+02     -1.3920e+03      2.7692e+02 
  9     -2.6974e+03      1.9112e+03      1.6493e+03 
 10     -1.9527e+03     -8.6247e+02      7.1967e+02 
----------------------------------------------------------------------------
       Nuclear coordinates (Angst) and velocities (a.u.)
----------------------------------------------------------------------------
             x        y        z            v_x         v_y        v_z
----------------------------------------------------------------------------
1      C    4.6562  -0.4079  -1.0294    -1.4006e-04   3.8797e-04  -2.1892e-04
2      C    3.7137   0.2277  -1.7352     9.0544e-05  -7.9422e-05  -1.3044e-04
3      H    5.4908  -0.9150  -1.5022     5.6646e-04  -4.7799e-04   1.5243e-03
4      H    4.6070  -0.4361   0.0544    -4.4019e-04   9.5799e-04  -1.4047e-03
5      C    3.6585   0.3032  -3.1754     1.2361e-04  -1.3890e-04  -8.3474e-05
6      C    4.7181   0.4032  -3.9873    -4.9976e-05  -1.1776e-04   2.7661e-04
7      H    4.5830   0.4802  -5.0614     1.5851e-03  -9.4105e-04   5.3114e-04
8      H    5.7361   0.4149  -3.6122     1.2698e-04  -6.3627e-04   1.2658e-04
9      H    2.8833   0.6932  -1.2072    -1.2330e-03   8.7362e-04   7.5390e-04
10     H    2.6595   0.3268  -3.6072    -8.9260e-04  -3.9424e-04   3.2896e-04
----------------------------------------------------------------------------
Write nuclear velocities every 1 time steps

TIME STEP #1 (t = 0.000 a.u. = 0.00000 fs)
--------------------------------------
 Instantaneous Temperature = 358.9 K
 ----------------------------------------------------------------
             Standard Nuclear Orientation (Angstroms)
    I     Atom           X                Y                Z
 ----------------------------------------------------------------
    1      C       4.6546351663    -0.4036597232    -1.0318397828
    2      C       3.7147703262     0.2267248120    -1.7362967263
    3      H       5.4966166934    -0.9199859192    -1.4859798881
    4      H       4.6024610308    -0.4259860074     0.0392818191
    5      C       3.6599448955     0.3018017233    -3.1765527935
    6      C       4.7174227912     0.4018809071    -3.9842523646
    7      H       4.5999839735     0.4702093422    -5.0555453426
    8      H       5.7372453585     0.4081642729    -3.6109411890
    9      H       2.8703710883     0.7023171000    -1.1993044119
   10      H       2.6502145132     0.3226705765    -3.6036949665
 ----------------------------------------------------------------
 Nuclear Repulsion Energy =   105.3431001654 hartrees
 There are       15 alpha and       15 beta electrons

                       Distance Matrix (Angstroms)
             C (  1)   C (  2)   H (  3)   H (  4)   C (  5)   C (  6)
   C (  2)  1.333038
   H (  3)  1.087092  2.133678
   H (  4)  1.072624  2.089666  1.835749
   C (  5)  2.467160  1.443253  2.779238  3.429228
   C (  6)  3.060977  2.467650  2.931866  4.109429  1.334411
   H (  7)  4.117868  3.443879  3.934259  5.173049  2.107759  1.079875
   H (  8)  2.912536  2.763624  2.517409  3.912502  2.124896  1.086020
   H (  9)  2.105903  1.107953  3.100196  2.409834  2.166414  3.355264
   H ( 10)  3.340613  2.151665  3.759111  4.200361  1.096559  2.103437
             H (  7)   H (  8)   H (  9)
   H (  8)  1.839591
   H (  9)  4.232733  3.757857
   H ( 10)  2.435413  3.088223  2.444114

 Applying Cartesian multipole field
    Component          Value
    ---------          -----
     (2,0,0)        1.00000E-12
     (0,2,0)        2.00000E-10
     (0,0,2)       -3.00000E-11
 Nucleus-field energy     =    -0.0000000198 hartrees
 ENuRep (before)= 105.3431001654
 ENucField = -0.0000000198
 ENuRep (after) = 105.3431001455
 Job number = 2, Threshold = 1.00E-11
Integral type ranges set in mkLRange.C for JobNum: 2  <1-6|1-6>
Symmetry turned off temporarily
Symmetry turned back on
 Job number = 11, Threshold = 1.00E-11
Integral type ranges set in mkLRange.C for JobNum: 11  <1-6|7-7>
 Smallest overlap matrix eigenvalue = 1.80E-01
 Multipole matrices computed through 2nd order
 Guess from superposition of atomic densities
 Warning:  Energy on first SCF cycle will be non-variational
 SAD guess density has 30.000000 electrons
 SCF convergence criterion is 10**(-8)
 A restricted Hartree-Fock SCF calculation will be
 performed using Pulay DIIS extrapolation
 SCF converges when DIIS error is below 1.0E-08
Finding J and K together
 Job number = 22, Threshold = 1.00E-11
Integral type ranges set in mkLRange.C for JobNum: 22  <1-6|1-6>
 MakeJK  time:  CPU       0.15 s  wall       0.15 s
Fock build time:  0.15 s (CPU) 0.15 s (wall)
DIIS Errors:  Max 1.10E+00 RMS 2.15E-01

Current DIIS subspace size = 1
REM_GRID_RESTART_DIIS = 0

 ---------------------------------------
  Cycle       Energy         DIIS Error
 ---------------------------------------
    1    -152.6485345310      2.15E-01  00000
Finding J and K together
 Job number = 22, Threshold = 1.00E-11
Integral type ranges set in mkLRange.C for JobNum: 22  <1-6|1-6>
 MakeJK  time:  CPU       0.20 s  wall       0.20 s
Fock build time:  0.20 s (CPU) 0.20 s (wall)
DIIS Errors:  Max 6.04E-02 RMS 1.29E-02

Current DIIS subspace size = 2
REM_GRID_RESTART_DIIS = 0

    2    -152.9870969910      1.29E-02  00000
Finding J and K together
 Job number = 22, Threshold = 1.00E-11
Integral type ranges set in mkLRange.C for JobNum: 22  <1-6|1-6>
 MakeJK  time:  CPU       0.19 s  wall       0.19 s
Fock build time:  0.19 s (CPU) 0.19 s (wall)
DIIS Errors:  Max 1.81E-02 RMS 3.62E-03

Current DIIS subspace size = 3
REM_GRID_RESTART_DIIS = 0

    3    -153.0105761150      3.62E-03  00000
Finding J and K together
 Job number = 22, Threshold = 1.00E-11
Integral type ranges set in mkLRange.C for JobNum: 22  <1-6|1-6>
 MakeJK  time:  CPU       0.14 s  wall       0.15 s
Fock build time:  0.14 s (CPU) 0.15 s (wall)
DIIS Errors:  Max 1.13E-02 RMS 1.60E-03

Current DIIS subspace size = 4
REM_GRID_RESTART_DIIS = 0

    4    -153.0122588627      1.60E-03  00000
Finding J and K together
 Job number = 22, Threshold = 1.00E-11
Integral type ranges set in mkLRange.C for JobNum: 22  <1-6|1-6>
 MakeJK  time:  CPU       0.14 s  wall       0.15 s
Fock build time:  0.14 s (CPU) 0.15 s (wall)
DIIS Errors:  Max 8.81E-04 RMS 9.41E-05

Current DIIS subspace size = 5
REM_GRID_RESTART_DIIS = 0

    5    -153.0125197906      9.41E-05  00000
Finding J and K together
 Job number = 22, Threshold = 1.00E-11
Integral type ranges set in mkLRange.C for JobNum: 22  <1-6|1-6>
 MakeJK  time:  CPU       0.13 s  wall       0.13 s
Fock build time:  0.13 s (CPU) 0.13 s (wall)
DIIS Errors:  Max 1.74E-04 RMS 1.90E-05

Current DIIS subspace size = 6
REM_GRID_RESTART_DIIS = 0

    6    -153.0125227754      1.90E-05  00000
Finding J and K together
 Job number = 22, Threshold = 1.00E-11
Integral type ranges set in mkLRange.C for JobNum: 22  <1-6|1-6>
 MakeJK  time:  CPU       0.13 s  wall       0.13 s
Fock build time:  0.13 s (CPU) 0.13 s (wall)
DIIS Errors:  Max 1.62E-05 RMS 3.70E-06

Current DIIS subspace size = 7
REM_GRID_RESTART_DIIS = 0

    7    -153.0125229033      3.70E-06  00000
Finding J and K together
 Job number = 22, Threshold = 1.00E-11
Integral type ranges set in mkLRange.C for JobNum: 22  <1-6|1-6>
 MakeJK  time:  CPU       0.14 s  wall       0.14 s
Fock build time:  0.14 s (CPU) 0.14 s (wall)
DIIS Errors:  Max 8.25E-06 RMS 1.28E-06

Current DIIS subspace size = 8
REM_GRID_RESTART_DIIS = 0

    8    -153.0125229058      1.28E-06  00000
Finding J and K together
 Job number = 22, Threshold = 1.00E-11
Integral type ranges set in mkLRange.C for JobNum: 22  <1-6|1-6>
 MakeJK  time:  CPU       0.15 s  wall       0.15 s
Fock build time:  0.15 s (CPU) 0.15 s (wall)
DIIS Errors:  Max 1.71E-06 RMS 3.30E-07

Current DIIS subspace size = 9
REM_GRID_RESTART_DIIS = 0

    9    -153.0125229061      3.30E-07  00000
Finding J and K together
 Job number = 22, Threshold = 1.00E-11
Integral type ranges set in mkLRange.C for JobNum: 22  <1-6|1-6>
 MakeJK  time:  CPU       0.14 s  wall       0.14 s
Fock build time:  0.14 s (CPU) 0.14 s (wall)
DIIS Errors:  Max 4.84E-07 RMS 8.46E-08

Current DIIS subspace size = 10
REM_GRID_RESTART_DIIS = 0

   10    -153.0125229061      8.46E-08  00000
Finding J and K together
 Job number = 22, Threshold = 1.00E-11
Integral type ranges set in mkLRange.C for JobNum: 22  <1-6|1-6>
 MakeJK  time:  CPU       0.16 s  wall       0.16 s
Fock build time:  0.16 s (CPU) 0.16 s (wall)
DIIS Errors:  Max 8.49E-08 RMS 1.43E-08

Current DIIS subspace size = 11
REM_GRID_RESTART_DIIS = 0

   11    -153.0125229061      1.43E-08  00000
Finding J and K together
 Job number = 22, Threshold = 1.00E-11
Integral type ranges set in mkLRange.C for JobNum: 22  <1-6|1-6>
 MakeJK  time:  CPU       0.14 s  wall       0.14 s
Fock build time:  0.14 s (CPU) 0.14 s (wall)
DIIS Errors:  Max 1.63E-08 RMS 3.04E-09

Current DIIS subspace size = 12
REM_GRID_RESTART_DIIS = 0

   12    -153.0125229061      3.04E-09  00000 Convergence criterion met
 ---------------------------------------
 SCF time:  CPU 1.83 s  wall 1.87 s
 SCF   energy in the final basis set = -153.01252291
 Total energy in the final basis set = -153.01252291
drvman_main.C: 73: calling DrvMan  Calculating analytic gradient of the SCF energy
drvman.C : 218: Calculating analytic gradient of the SCF energy
drvman.C: 244: calling SCF_Grad for normal SCF gradient
 Job number = 111, Threshold = 1.00E-11
Integral type ranges set in mkLRange.C for JobNum: 11  <1-6|7-7>
 Warning:  Cost of integrals step H3 set to -2016369201
 Warning:  Retrieved cost of -2016369201 for integrals step H3
 Warning:  Retrieved cost of -2016369201 for integrals step H3
Finding J and K together
 ML is being used
 Job number = 122, Threshold = 1.00E-11
Integral type ranges set in mkLRange.C for JobNum: 22  <1-6|1-6>
 MakeJK  time:  CPU       0.42 s  wall       0.44 s
 Gradient of SCF Energy
            1           2           3           4           5           6
    1   0.0183621  -0.0078773   0.0051620  -0.0020502  -0.0143703   0.0227025
    2  -0.0148043   0.0136307  -0.0029424   0.0009329  -0.0105850   0.0057963
    3   0.0201779  -0.0640854  -0.0007611  -0.0086428   0.0628862  -0.0188851
            7           8           9          10
    1  -0.0005580   0.0044098  -0.0154048  -0.0103759
    2   0.0000950  -0.0008717   0.0091411  -0.0003927
    3   0.0015779   0.0007531   0.0086098  -0.0016305
 Max gradient component =       6.409E-02
 RMS gradient           =       1.927E-02
drvman.C: 248: out of SCF_Grad for normal SCF gradient
 Gradient time:  CPU 0.43 s  wall 0.46 s
 ------------------------------------------------------------------------------
                     drvman        : Timing summary (seconds)
 ------------------------------------------------------------------------------
     job step          cpu (% of tot)      sys (% of tot)     wall (% of tot)
 ------------------------------------------------------------------------------
 ------------------------------------------------------------------------------
   Grand Totals     0.4320E+00          0.1000E-05          0.4566E+00
 ------------------------------------------------------------------------------
drvman_main.C: 77: out of DrvMan  Time for this dynamics step: 2.3 s (CPU) 2.4 s (wall)

TIME STEP #2 (t = 20.000 a.u. = 0.48378 fs)
--------------------------------------
 Instantaneous Temperature = 358.5 K
 ----------------------------------------------------------------
             Standard Nuclear Orientation (Angstroms)
    I     Atom           X                Y                Z
 ----------------------------------------------------------------
    1      C       4.6528526512    -0.3993161923    -1.0344248175
    2      C       3.7159168774     0.2256377261    -1.7367633282
    3      H       5.5018586375    -0.9246428243    -1.4696320811
    4      H       4.5982082743    -0.4159994997     0.0252094280
    5      C       3.6615188460     0.3004858726    -3.1783541075
    6      C       4.7165259005     0.4005557262    -3.9810519870
    7      H       4.6170122354     0.4601877355    -5.0499224871
    8      H       5.7379026343     0.4015589790    -3.6097991495
    9      H       2.8592570568     0.7103909984    -1.1923508085
   10      H       2.6421644984     0.3185663928    -3.6000120744
 ----------------------------------------------------------------
 Nuclear Repulsion Energy =   105.4501173114 hartrees
 There are       15 alpha and       15 beta electrons

                       Distance Matrix (Angstroms)
             C (  1)   C (  2)   H (  3)   H (  4)   C (  5)   C (  6)
   C (  2)  1.327289
   H (  3)  1.089121  2.141049
   H (  4)  1.061173  2.072362  1.819300
   C (  5)  2.463513  1.444557  2.794194  3.413731
   C (  6)  3.053926  2.463462  2.946206  4.090341  1.329428
   H (  7)  4.106611  3.441513  3.939440  5.150245  2.107425  1.075148
   H (  8)  2.907110  2.761818  2.528803  3.896228  2.123142  1.086757
   H (  9)  2.115036  1.124827  3.119866  2.403156  2.180792  3.364863
   H ( 10)  3.337733  2.152505  3.776498  4.184247  1.103270  2.110661
             H (  7)   H (  8)   H (  9)
   H (  8)  1.825866
   H (  9)  4.246547  3.771742
   H ( 10)  2.454042  3.096866  2.448977

 Applying Cartesian multipole field
    Component          Value
    ---------          -----
     (2,0,0)        1.00000E-12
     (0,2,0)        2.00000E-10
     (0,0,2)       -3.00000E-11
 Nucleus-field energy     =    -0.0000000198 hartrees
 ENuRep (before)= 105.4501173114
 ENucField = -0.0000000198
 ENuRep (after) = 105.4501172915
 Job number = 2, Threshold = 1.00E-11
Integral type ranges set in mkLRange.C for JobNum: 2  <1-6|1-6>
Symmetry turned off temporarily
Symmetry turned back on
 Job number = 11, Threshold = 1.00E-11
Integral type ranges set in mkLRange.C for JobNum: 11  <1-6|7-7>
 Smallest overlap matrix eigenvalue = 1.78E-01
 Multipole matrices computed through 2nd order
 Guess from superposition of atomic densities
 Warning:  Energy on first SCF cycle will be non-variational
 SAD guess density has 30.000000 electrons
 SCF convergence criterion is 10**(-8)
 A restricted Hartree-Fock SCF calculation will be
 performed using Pulay DIIS extrapolation
 SCF converges when DIIS error is below 1.0E-08
Finding J and K together
 Job number = 22, Threshold = 1.00E-11
Integral type ranges set in mkLRange.C for JobNum: 22  <1-6|1-6>
 MakeJK  time:  CPU       0.10 s  wall       0.11 s
Fock build time:  0.10 s (CPU) 0.11 s (wall)
DIIS Errors:  Max 1.11E+00 RMS 2.16E-01

Current DIIS subspace size = 1
REM_GRID_RESTART_DIIS = 0

 ---------------------------------------
  Cycle       Energy         DIIS Error
 ---------------------------------------
    1    -152.6607719620      2.16E-01  00000
Finding J and K together
 Job number = 22, Threshold = 1.00E-11
Integral type ranges set in mkLRange.C for JobNum: 22  <1-6|1-6>
 MakeJK  time:  CPU       0.17 s  wall       0.22 s
Fock build time:  0.17 s (CPU) 0.22 s (wall)
DIIS Errors:  Max 6.10E-02 RMS 1.30E-02

Current DIIS subspace size = 2
REM_GRID_RESTART_DIIS = 0

    2    -152.9859872205      1.30E-02  00000
Finding J and K together
 Job number = 22, Threshold = 1.00E-11
Integral type ranges set in mkLRange.C for JobNum: 22  <1-6|1-6>
 MakeJK  time:  CPU       0.14 s  wall       0.14 s
Fock build time:  0.14 s (CPU) 0.14 s (wall)
DIIS Errors:  Max 1.84E-02 RMS 3.67E-03

Current DIIS subspace size = 3
REM_GRID_RESTART_DIIS = 0

    3    -153.0095756139      3.67E-03  00000
Finding J and K together
 Job number = 22, Threshold = 1.00E-11
Integral type ranges set in mkLRange.C for JobNum: 22  <1-6|1-6>
 MakeJK  time:  CPU       0.15 s  wall       0.15 s
Fock build time:  0.15 s (CPU) 0.15 s (wall)
DIIS Errors:  Max 1.15E-02 RMS 1.64E-03

Current DIIS subspace size = 4
REM_GRID_RESTART_DIIS = 0

    4    -153.0112688098      1.64E-03  00000
Finding J and K together
 Job number = 22, Threshold = 1.00E-11
Integral type ranges set in mkLRange.C for JobNum: 22  <1-6|1-6>
 MakeJK  time:  CPU       0.14 s  wall       0.14 s
Fock build time:  0.14 s (CPU) 0.14 s (wall)
DIIS Errors:  Max 8.55E-04 RMS 9.27E-05

Current DIIS subspace size = 5
REM_GRID_RESTART_DIIS = 0

    5    -153.0115462154      9.27E-05  00000
Finding J and K together
 Job number = 22, Threshold = 1.00E-11
Integral type ranges set in mkLRange.C for JobNum: 22  <1-6|1-6>
 MakeJK  time:  CPU       0.12 s  wall       0.13 s
Fock build time:  0.12 s (CPU) 0.13 s (wall)
DIIS Errors:  Max 1.79E-04 RMS 2.03E-05

Current DIIS subspace size = 6
REM_GRID_RESTART_DIIS = 0

    6    -153.0115490128      2.03E-05  00000
Finding J and K together
 Job number = 22, Threshold = 1.00E-11
Integral type ranges set in mkLRange.C for JobNum: 22  <1-6|1-6>
 MakeJK  time:  CPU       0.14 s  wall       0.14 s
Fock build time:  0.14 s (CPU) 0.14 s (wall)
DIIS Errors:  Max 2.08E-05 RMS 4.80E-06

Current DIIS subspace size = 7
REM_GRID_RESTART_DIIS = 0

    7    -153.0115491490      4.80E-06  00000
Finding J and K together
 Job number = 22, Threshold = 1.00E-11
Integral type ranges set in mkLRange.C for JobNum: 22  <1-6|1-6>
 MakeJK  time:  CPU       0.14 s  wall       0.14 s
Fock build time:  0.14 s (CPU) 0.14 s (wall)
DIIS Errors:  Max 8.88E-06 RMS 1.44E-06

Current DIIS subspace size = 8
REM_GRID_RESTART_DIIS = 0

    8    -153.0115491529      1.44E-06  00000
Finding J and K together
 Job number = 22, Threshold = 1.00E-11
Integral type ranges set in mkLRange.C for JobNum: 22  <1-6|1-6>
 MakeJK  time:  CPU       0.16 s  wall       0.17 s
Fock build time:  0.16 s (CPU) 0.17 s (wall)
DIIS Errors:  Max 1.86E-06 RMS 3.54E-07

Current DIIS subspace size = 9
REM_GRID_RESTART_DIIS = 0

    9    -153.0115491532      3.54E-07  00000
Finding J and K together
 Job number = 22, Threshold = 1.00E-11
Integral type ranges set in mkLRange.C for JobNum: 22  <1-6|1-6>
 MakeJK  time:  CPU       0.17 s  wall       0.18 s
Fock build time:  0.17 s (CPU) 0.18 s (wall)
DIIS Errors:  Max 4.71E-07 RMS 8.85E-08

Current DIIS subspace size = 10
REM_GRID_RESTART_DIIS = 0

   10    -153.0115491532      8.85E-08  00000
Finding J and K together
 Job number = 22, Threshold = 1.00E-11
Integral type ranges set in mkLRange.C for JobNum: 22  <1-6|1-6>
 MakeJK  time:  CPU       0.19 s  wall       0.19 s
Fock build time:  0.19 s (CPU) 0.19 s (wall)
DIIS Errors:  Max 8.64E-08 RMS 1.51E-08

Current DIIS subspace size = 11
REM_GRID_RESTART_DIIS = 0

   11    -153.0115491532      1.51E-08  00000
Finding J and K together
 Job number = 22, Threshold = 1.00E-11
Integral type ranges set in mkLRange.C for JobNum: 22  <1-6|1-6>
 MakeJK  time:  CPU       0.20 s  wall       0.22 s
Fock build time:  0.20 s (CPU) 0.22 s (wall)
DIIS Errors:  Max 2.07E-08 RMS 3.98E-09

Current DIIS subspace size = 12
REM_GRID_RESTART_DIIS = 0

   12    -153.0115491532      3.98E-09  00000 Convergence criterion met
 ---------------------------------------
 SCF time:  CPU 1.84 s  wall 1.94 s
 SCF   energy in the final basis set = -153.01154915
 Total energy in the final basis set = -153.01154915
drvman_main.C: 73: calling DrvMan  Calculating analytic gradient of the SCF energy
drvman.C : 218: Calculating analytic gradient of the SCF energy
drvman.C: 244: calling SCF_Grad for normal SCF gradient
 Job number = 111, Threshold = 1.00E-11
Integral type ranges set in mkLRange.C for JobNum: 11  <1-6|7-7>
Finding J and K together
 ML is being used
 Job number = 122, Threshold = 1.00E-11
Integral type ranges set in mkLRange.C for JobNum: 22  <1-6|1-6>
 MakeJK  time:  CPU       0.50 s  wall       0.53 s
 Gradient of SCF Energy
            1           2           3           4           5           6
    1   0.0106319   0.0057972   0.0074070  -0.0010793  -0.0028170   0.0142269
    2  -0.0095360   0.0042886  -0.0047184   0.0009532  -0.0102162   0.0067021
    3   0.0239802  -0.0640108   0.0008579  -0.0203049   0.0594250  -0.0177921
            7           8           9          10
    1   0.0020115   0.0054292  -0.0255024  -0.0161049
    2  -0.0006259  -0.0012605   0.0148374  -0.0004243
    3   0.0059195  -0.0006031   0.0149893  -0.0024608
 Max gradient component =       6.401E-02
 RMS gradient           =       1.920E-02
drvman.C: 248: out of SCF_Grad for normal SCF gradient
 Gradient time:  CPU 0.52 s  wall 0.55 s
 ------------------------------------------------------------------------------
                     drvman        : Timing summary (seconds)
 ------------------------------------------------------------------------------
     job step          cpu (% of tot)      sys (% of tot)     wall (% of tot)
 ------------------------------------------------------------------------------
 ------------------------------------------------------------------------------
   Grand Totals     0.5200E+00          0.2000E-05          0.5539E+00
 ------------------------------------------------------------------------------
drvman_main.C: 77: out of DrvMan  Time for this dynamics step: 2.4 s (CPU) 2.5 s (wall)

TIME STEP #3 (t = 40.000 a.u. = 0.96755 fs)
--------------------------------------
 Instantaneous Temperature = 338.7 K
 ----------------------------------------------------------------
             Standard Nuclear Orientation (Angstroms)
    I     Atom           X                Y                Z
 ----------------------------------------------------------------
    1      C       4.6509672564    -0.3948803860    -1.0372418969
    2      C       3.7170073319     0.2245091410    -1.7366105273
    3      H       5.5062471765    -0.9287560893    -1.4533831152
    4      H       4.5940798756    -0.4061228116     0.0134764941
    5      C       3.6631200552     0.2992688789    -3.1807304495
    6      C       4.7154913427     0.3991656925    -3.9776794433
    7      H       4.6338087404     0.4502382427    -5.0449816535
    8      H       5.7379343821     0.3950989159    -3.6085876261
    9      H       2.8510813199     0.7167553850    -1.1871242124
   10      H       2.6359700258     0.3145110917    -3.5960456527
 ----------------------------------------------------------------
 Nuclear Repulsion Energy =   105.5747866772 hartrees
 There are       15 alpha and       15 beta electrons

                       Distance Matrix (Angstroms)
             C (  1)   C (  2)   H (  3)   H (  4)   C (  5)   C (  6)
   C (  2)  1.321000
   H (  3)  1.090734  2.147468
   H (  4)  1.052317  2.056637  1.804681
   C (  5)  2.460128  1.447057  2.808717  3.401062
   C (  6)  3.046448  2.459647  2.959855  4.073396  1.323855
   H (  7)  4.095912  3.440465  3.944915  5.130588  2.107240  1.071641
   H (  8)  2.901273  2.759990  2.539917  3.881972  2.120637  1.087030
   H (  9)  2.120799  1.137572  3.135045  2.395901  2.192753  3.371066
   H ( 10)  3.333306  2.152729  3.791465  4.169191  1.108042  2.115944
             H (  7)   H (  8)   H (  9)
   H (  8)  1.812557
   H (  9)  4.258194  3.781649
   H ( 10)  2.471679  3.103036  2.451729

 Applying Cartesian multipole field
    Component          Value
    ---------          -----
     (2,0,0)        1.00000E-12
     (0,2,0)        2.00000E-10
     (0,0,2)       -3.00000E-11
 Nucleus-field energy     =    -0.0000000199 hartrees
 ENuRep (before)= 105.5747866772
 ENucField = -0.0000000199
 ENuRep (after) = 105.5747866574
 Job number = 2, Threshold = 1.00E-11
Integral type ranges set in mkLRange.C for JobNum: 2  <1-6|1-6>
Symmetry turned off temporarily
Symmetry turned back on
 Job number = 11, Threshold = 1.00E-11
Integral type ranges set in mkLRange.C for JobNum: 11  <1-6|7-7>
 Smallest overlap matrix eigenvalue = 1.76E-01
 Multipole matrices computed through 2nd order
 Guess from superposition of atomic densities
 Warning:  Energy on first SCF cycle will be non-variational
 SAD guess density has 30.000000 electrons
 SCF convergence criterion is 10**(-8)
 A restricted Hartree-Fock SCF calculation will be
 performed using Pulay DIIS extrapolation
 SCF converges when DIIS error is below 1.0E-08
Finding J and K together
 Job number = 22, Threshold = 1.00E-11
Integral type ranges set in mkLRange.C for JobNum: 22  <1-6|1-6>
 MakeJK  time:  CPU       0.15 s  wall       0.15 s
Fock build time:  0.15 s (CPU) 0.15 s (wall)
DIIS Errors:  Max 1.12E+00 RMS 2.18E-01

Current DIIS subspace size = 1
REM_GRID_RESTART_DIIS = 0

 ---------------------------------------
  Cycle       Energy         DIIS Error
 ---------------------------------------
    1    -152.6765570981      2.18E-01  00000
Finding J and K together
 Job number = 22, Threshold = 1.00E-11
Integral type ranges set in mkLRange.C for JobNum: 22  <1-6|1-6>
 MakeJK  time:  CPU       0.19 s  wall       0.22 s
Fock build time:  0.19 s (CPU) 0.22 s (wall)
DIIS Errors:  Max 6.16E-02 RMS 1.30E-02

Current DIIS subspace size = 2
REM_GRID_RESTART_DIIS = 0

    2    -152.9844845694      1.30E-02  00000
Finding J and K together
 Job number = 22, Threshold = 1.00E-11
Integral type ranges set in mkLRange.C for JobNum: 22  <1-6|1-6>
 MakeJK  time:  CPU       0.20 s  wall       0.21 s
Fock build time:  0.20 s (CPU) 0.21 s (wall)
DIIS Errors:  Max 1.87E-02 RMS 3.71E-03

Current DIIS subspace size = 3
REM_GRID_RESTART_DIIS = 0

    3    -153.0081611286      3.71E-03  00000
Finding J and K together
 Job number = 22, Threshold = 1.00E-11
Integral type ranges set in mkLRange.C for JobNum: 22  <1-6|1-6>
 MakeJK  time:  CPU       0.20 s  wall       0.20 s
Fock build time:  0.20 s (CPU) 0.20 s (wall)
DIIS Errors:  Max 1.16E-02 RMS 1.67E-03

Current DIIS subspace size = 4
REM_GRID_RESTART_DIIS = 0

    4    -153.0098617593      1.67E-03  00000
Finding J and K together
 Job number = 22, Threshold = 1.00E-11
Integral type ranges set in mkLRange.C for JobNum: 22  <1-6|1-6>
 MakeJK  time:  CPU       0.20 s  wall       0.20 s
Fock build time:  0.20 s (CPU) 0.20 s (wall)
DIIS Errors:  Max 8.24E-04 RMS 9.09E-05

Current DIIS subspace size = 5
REM_GRID_RESTART_DIIS = 0

    5    -153.0101481756      9.09E-05  00000
Finding J and K together
 Job number = 22, Threshold = 1.00E-11
Integral type ranges set in mkLRange.C for JobNum: 22  <1-6|1-6>
 MakeJK  time:  CPU       0.19 s  wall       0.20 s
Fock build time:  0.19 s (CPU) 0.21 s (wall)
DIIS Errors:  Max 1.82E-04 RMS 2.12E-05

Current DIIS subspace size = 6
REM_GRID_RESTART_DIIS = 0

    6    -153.0101507706      2.12E-05  00000
Finding J and K together
 Job number = 22, Threshold = 1.00E-11
Integral type ranges set in mkLRange.C for JobNum: 22  <1-6|1-6>
 MakeJK  time:  CPU       0.19 s  wall       0.21 s
Fock build time:  0.19 s (CPU) 0.21 s (wall)
DIIS Errors:  Max 2.39E-05 RMS 5.39E-06

Current DIIS subspace size = 7
REM_GRID_RESTART_DIIS = 0

    7    -153.0101509117      5.39E-06  00000
Finding J and K together
 Job number = 22, Threshold = 1.00E-11
Integral type ranges set in mkLRange.C for JobNum: 22  <1-6|1-6>
 MakeJK  time:  CPU       0.20 s  wall       0.20 s
Fock build time:  0.20 s (CPU) 0.20 s (wall)
DIIS Errors:  Max 8.95E-06 RMS 1.50E-06

Current DIIS subspace size = 8
REM_GRID_RESTART_DIIS = 0

    8    -153.0101509165      1.50E-06  00000
Finding J and K together
 Job number = 22, Threshold = 1.00E-11
Integral type ranges set in mkLRange.C for JobNum: 22  <1-6|1-6>
 MakeJK  time:  CPU       0.20 s  wall       0.20 s
Fock build time:  0.20 s (CPU) 0.20 s (wall)
DIIS Errors:  Max 1.89E-06 RMS 3.68E-07

Current DIIS subspace size = 9
REM_GRID_RESTART_DIIS = 0

    9    -153.0101509169      3.68E-07  00000
Finding J and K together
 Job number = 22, Threshold = 1.00E-11
Integral type ranges set in mkLRange.C for JobNum: 22  <1-6|1-6>
 MakeJK  time:  CPU       0.20 s  wall       0.20 s
Fock build time:  0.20 s (CPU) 0.20 s (wall)
DIIS Errors:  Max 4.58E-07 RMS 9.02E-08

Current DIIS subspace size = 10
REM_GRID_RESTART_DIIS = 0

   10    -153.0101509169      9.02E-08  00000
Finding J and K together
 Job number = 22, Threshold = 1.00E-11
Integral type ranges set in mkLRange.C for JobNum: 22  <1-6|1-6>
 MakeJK  time:  CPU       0.20 s  wall       0.21 s
Fock build time:  0.20 s (CPU) 0.21 s (wall)
DIIS Errors:  Max 8.67E-08 RMS 1.54E-08

Current DIIS subspace size = 11
REM_GRID_RESTART_DIIS = 0

   11    -153.0101509169      1.54E-08  00000
Finding J and K together
 Job number = 22, Threshold = 1.00E-11
Integral type ranges set in mkLRange.C for JobNum: 22  <1-6|1-6>
 MakeJK  time:  CPU       0.19 s  wall       0.19 s
Fock build time:  0.19 s (CPU) 0.19 s (wall)
DIIS Errors:  Max 2.20E-08 RMS 4.37E-09

Current DIIS subspace size = 12
REM_GRID_RESTART_DIIS = 0

   12    -153.0101509169      4.37E-09  00000 Convergence criterion met
 ---------------------------------------
 SCF time:  CPU 2.32 s  wall 2.43 s
 SCF   energy in the final basis set = -153.01015092
 Total energy in the final basis set = -153.01015092
drvman_main.C: 73: calling DrvMan  Calculating analytic gradient of the SCF energy
drvman.C : 218: Calculating analytic gradient of the SCF energy
drvman.C: 244: calling SCF_Grad for normal SCF gradient
 Job number = 111, Threshold = 1.00E-11
Integral type ranges set in mkLRange.C for JobNum: 11  <1-6|7-7>
Finding J and K together
 ML is being used
 Job number = 122, Threshold = 1.00E-11
Integral type ranges set in mkLRange.C for JobNum: 22  <1-6|1-6>
 MakeJK  time:  CPU       0.52 s  wall       0.54 s
 Gradient of SCF Energy
            1           2           3           4           5           6
    1   0.0026090   0.0173433   0.0092369  -0.0001655   0.0078822   0.0055560
    2  -0.0039019  -0.0039889  -0.0062573   0.0008481  -0.0096069   0.0074259
    3   0.0248754  -0.0603677   0.0026913  -0.0298398   0.0535549  -0.0149048
            7           8           9          10
    1   0.0043581   0.0060326  -0.0326339  -0.0202187
    2  -0.0012554  -0.0016541   0.0188883  -0.0004978
    3   0.0092761  -0.0021330   0.0194301  -0.0025825
 Max gradient component =       6.037E-02
 RMS gradient           =       1.943E-02
drvman.C: 248: out of SCF_Grad for normal SCF gradient
 Gradient time:  CPU 0.54 s  wall 0.57 s
 ------------------------------------------------------------------------------
                     drvman        : Timing summary (seconds)
 ------------------------------------------------------------------------------
     job step          cpu (% of tot)      sys (% of tot)     wall (% of tot)
 ------------------------------------------------------------------------------
 ------------------------------------------------------------------------------
   Grand Totals     0.5360E+00          0.2000E-05          0.5661E+00
 ------------------------------------------------------------------------------
drvman_main.C: 77: out of DrvMan  Time for this dynamics step: 2.9 s (CPU) 3.0 s (wall)

TIME STEP #4 (t = 60.000 a.u. = 1.45133 fs)
--------------------------------------
 Instantaneous Temperature = 310.0 K
 ----------------------------------------------------------------
             Standard Nuclear Orientation (Angstroms)
    I     Atom           X                Y                Z
 ----------------------------------------------------------------
    1      C       4.6490566156    -0.3904068231    -1.0402996844
    2      C       3.7179299639     0.2234191547    -1.7358735765
    3      H       5.5095714799    -0.9321484148    -1.4374442332
    4      H       4.5899705503    -0.3963438379     0.0051815903
    5      C       3.6646449918     0.2981448471    -3.1836250171
    6      C       4.7144030218     0.3977038014    -3.9741626724
    7      H       4.6501031161     0.4404333942    -5.0411095764
    8      H       5.7372710754     0.3888294326    -3.6071303505
    9      H       2.8466655405     0.7209435338    -1.1841362775
   10      H       2.6321050703     0.3105131471    -3.5917816805
 ----------------------------------------------------------------
 Nuclear Repulsion Energy =   105.7137323814 hartrees
 There are       15 alpha and       15 beta electrons

                       Distance Matrix (Angstroms)
             C (  1)   C (  2)   H (  3)   H (  4)   C (  5)   C (  6)
   C (  2)  1.314383
   H (  3)  1.091647  2.152760
   H (  4)  1.047166  2.043486  1.792741
   C (  5)  2.457033  1.450658  2.822503  3.392201
   C (  6)  3.038575  2.456272  2.972497  4.059701  1.317897
   H (  7)  4.086169  3.441021  3.950832  5.115551  2.107516  1.069736
   H (  8)  2.894830  2.758025  2.550366  3.870606  2.117394  1.086761
   H (  9)  2.122358  1.145009  3.144510  2.387869  2.201319  3.373007
   H ( 10)  3.327077  2.151975  3.803313  4.155843  1.110353  2.118911
             H (  7)   H (  8)   H (  9)
   H (  8)  1.800248
   H (  9)  4.267003  3.786397
   H ( 10)  2.487920  3.106191  2.451784

 Applying Cartesian multipole field
    Component          Value
    ---------          -----
     (2,0,0)        1.00000E-12
     (0,2,0)        2.00000E-10
     (0,0,2)       -3.00000E-11
 Nucleus-field energy     =    -0.0000000199 hartrees
 ENuRep (before)= 105.7137323814
 ENucField = -0.0000000199
 ENuRep (after) = 105.7137323615
 Job number = 2, Threshold = 1.00E-11
Integral type ranges set in mkLRange.C for JobNum: 2  <1-6|1-6>
Symmetry turned off temporarily
Symmetry turned back on
 Job number = 11, Threshold = 1.00E-11
Integral type ranges set in mkLRange.C for JobNum: 11  <1-6|7-7>
 Smallest overlap matrix eigenvalue = 1.74E-01
 Multipole matrices computed through 2nd order
 Guess from superposition of atomic densities
 Warning:  Energy on first SCF cycle will be non-variational
 SAD guess density has 30.000000 electrons
 SCF convergence criterion is 10**(-8)
 A restricted Hartree-Fock SCF calculation will be
 performed using Pulay DIIS extrapolation
 SCF converges when DIIS error is below 1.0E-08
Finding J and K together
 Job number = 22, Threshold = 1.00E-11
Integral type ranges set in mkLRange.C for JobNum: 22  <1-6|1-6>
 MakeJK  time:  CPU       0.16 s  wall       0.16 s
Fock build time:  0.16 s (CPU) 0.16 s (wall)
DIIS Errors:  Max 1.14E+00 RMS 2.19E-01

Current DIIS subspace size = 1
REM_GRID_RESTART_DIIS = 0

 ---------------------------------------
  Cycle       Energy         DIIS Error
 ---------------------------------------
    1    -152.6952669244      2.19E-01  00000
Finding J and K together
 Job number = 22, Threshold = 1.00E-11
Integral type ranges set in mkLRange.C for JobNum: 22  <1-6|1-6>
 MakeJK  time:  CPU       0.20 s  wall       0.21 s
Fock build time:  0.20 s (CPU) 0.21 s (wall)
DIIS Errors:  Max 6.21E-02 RMS 1.31E-02

Current DIIS subspace size = 2
REM_GRID_RESTART_DIIS = 0

    2    -152.9831897011      1.31E-02  00000
Finding J and K together
 Job number = 22, Threshold = 1.00E-11
Integral type ranges set in mkLRange.C for JobNum: 22  <1-6|1-6>
 MakeJK  time:  CPU       0.20 s  wall       0.21 s
Fock build time:  0.20 s (CPU) 0.21 s (wall)
DIIS Errors:  Max 1.89E-02 RMS 3.73E-03

Current DIIS subspace size = 3
REM_GRID_RESTART_DIIS = 0

    3    -153.0069191756      3.73E-03  00000
Finding J and K together
 Job number = 22, Threshold = 1.00E-11
Integral type ranges set in mkLRange.C for JobNum: 22  <1-6|1-6>
 MakeJK  time:  CPU       0.20 s  wall       0.21 s
Fock build time:  0.20 s (CPU) 0.21 s (wall)
DIIS Errors:  Max 1.16E-02 RMS 1.67E-03

Current DIIS subspace size = 4
REM_GRID_RESTART_DIIS = 0

    4    -153.0086210028      1.67E-03  00000
Finding J and K together
 Job number = 22, Threshold = 1.00E-11
Integral type ranges set in mkLRange.C for JobNum: 22  <1-6|1-6>
 MakeJK  time:  CPU       0.20 s  wall       0.20 s
Fock build time:  0.20 s (CPU) 0.20 s (wall)
DIIS Errors:  Max 7.91E-04 RMS 8.86E-05

Current DIIS subspace size = 5
REM_GRID_RESTART_DIIS = 0

    5    -153.0089084611      8.86E-05  00000
Finding J and K together
 Job number = 22, Threshold = 1.00E-11
Integral type ranges set in mkLRange.C for JobNum: 22  <1-6|1-6>
 MakeJK  time:  CPU       0.20 s  wall       0.20 s
Fock build time:  0.20 s (CPU) 0.20 s (wall)
DIIS Errors:  Max 1.81E-04 RMS 2.15E-05

Current DIIS subspace size = 6
REM_GRID_RESTART_DIIS = 0

    6    -153.0089108482      2.15E-05  00000
Finding J and K together
 Job number = 22, Threshold = 1.00E-11
Integral type ranges set in mkLRange.C for JobNum: 22  <1-6|1-6>
 MakeJK  time:  CPU       0.19 s  wall       0.20 s
Fock build time:  0.19 s (CPU) 0.20 s (wall)
DIIS Errors:  Max 2.52E-05 RMS 5.57E-06

Current DIIS subspace size = 7
REM_GRID_RESTART_DIIS = 0

    7    -153.0089109886      5.57E-06  00000
Finding J and K together
 Job number = 22, Threshold = 1.00E-11
Integral type ranges set in mkLRange.C for JobNum: 22  <1-6|1-6>
 MakeJK  time:  CPU       0.19 s  wall       0.20 s
Fock build time:  0.19 s (CPU) 0.20 s (wall)
DIIS Errors:  Max 8.92E-06 RMS 1.51E-06

Current DIIS subspace size = 8
REM_GRID_RESTART_DIIS = 0

    8    -153.0089109937      1.51E-06  00000
Finding J and K together
 Job number = 22, Threshold = 1.00E-11
Integral type ranges set in mkLRange.C for JobNum: 22  <1-6|1-6>
 MakeJK  time:  CPU       0.20 s  wall       0.20 s
Fock build time:  0.20 s (CPU) 0.21 s (wall)
DIIS Errors:  Max 1.87E-06 RMS 3.70E-07

Current DIIS subspace size = 9
REM_GRID_RESTART_DIIS = 0

    9    -153.0089109941      3.70E-07  00000
Finding J and K together
 Job number = 22, Threshold = 1.00E-11
Integral type ranges set in mkLRange.C for JobNum: 22  <1-6|1-6>
 MakeJK  time:  CPU       0.20 s  wall       0.20 s
Fock build time:  0.20 s (CPU) 0.20 s (wall)
DIIS Errors:  Max 4.46E-07 RMS 8.89E-08

Current DIIS subspace size = 10
REM_GRID_RESTART_DIIS = 0

   10    -153.0089109941      8.89E-08  00000
Finding J and K together
 Job number = 22, Threshold = 1.00E-11
Integral type ranges set in mkLRange.C for JobNum: 22  <1-6|1-6>
 MakeJK  time:  CPU       0.20 s  wall       0.20 s
Fock build time:  0.20 s (CPU) 0.20 s (wall)
DIIS Errors:  Max 8.51E-08 RMS 1.51E-08

Current DIIS subspace size = 11
REM_GRID_RESTART_DIIS = 0

   11    -153.0089109941      1.51E-08  00000
Finding J and K together
 Job number = 22, Threshold = 1.00E-11
Integral type ranges set in mkLRange.C for JobNum: 22  <1-6|1-6>
 MakeJK  time:  CPU       0.20 s  wall       0.21 s
Fock build time:  0.20 s (CPU) 0.21 s (wall)
DIIS Errors:  Max 2.26E-08 RMS 4.40E-09

Current DIIS subspace size = 12
REM_GRID_RESTART_DIIS = 0

   12    -153.0089109941      4.40E-09  00000 Convergence criterion met
 ---------------------------------------
 SCF time:  CPU 2.36 s  wall 2.44 s
 SCF   energy in the final basis set = -153.00891099
 Total energy in the final basis set = -153.00891099
drvman_main.C: 73: calling DrvMan  Calculating analytic gradient of the SCF energy
drvman.C : 218: Calculating analytic gradient of the SCF energy
drvman.C: 244: calling SCF_Grad for normal SCF gradient
 Job number = 111, Threshold = 1.00E-11
Integral type ranges set in mkLRange.C for JobNum: 11  <1-6|7-7>
Finding J and K together
 ML is being used
 Job number = 122, Threshold = 1.00E-11
Integral type ranges set in mkLRange.C for JobNum: 22  <1-6|1-6>
 MakeJK  time:  CPU       0.52 s  wall       0.52 s
 Gradient of SCF Energy
            1           2           3           4           5           6
    1  -0.0052373   0.0265052   0.0104454   0.0005543   0.0172589  -0.0030312
    2   0.0018178  -0.0109964  -0.0074178   0.0006558  -0.0087885   0.0079787
    3   0.0214578  -0.0533344   0.0047529  -0.0357019   0.0454592  -0.0099546
            7           8           9          10
    1   0.0064364   0.0061422  -0.0366550  -0.0224189
    2  -0.0017911  -0.0020460   0.0211969  -0.0006094
    3   0.0112051  -0.0038006   0.0218536  -0.0019371
 Max gradient component =       5.333E-02
 RMS gradient           =       1.936E-02
drvman.C: 248: out of SCF_Grad for normal SCF gradient
 Gradient time:  CPU 0.53 s  wall 0.55 s
 ------------------------------------------------------------------------------
                     drvman        : Timing summary (seconds)
 ------------------------------------------------------------------------------
     job step          cpu (% of tot)      sys (% of tot)     wall (% of tot)
 ------------------------------------------------------------------------------
 ------------------------------------------------------------------------------
   Grand Totals     0.5320E+00          0.1000E-05          0.5470E+00
 ------------------------------------------------------------------------------
drvman_main.C: 77: out of DrvMan  Time for this dynamics step: 2.9 s (CPU) 3.0 s (wall)

TIME STEP #5 (t = 80.000 a.u. = 1.93511 fs)
--------------------------------------
 Instantaneous Temperature = 284.5 K
 ----------------------------------------------------------------
             Standard Nuclear Orientation (Angstroms)
    I     Atom           X                Y                Z
 ----------------------------------------------------------------
    1      C       4.6471966539    -0.3859508502    -1.0435651090
    2      C       3.7185961169     0.2224355750    -1.7346205337
    3      H       5.5116923046    -0.9346860909    -1.4220529633
    4      H       4.5857973620    -0.3866404180     0.0010001223
    5      C       3.6660029220     0.2971058572    -3.1869594723
    6      C       4.7133440328     0.3961647042    -3.9705495756
    7      H       4.6656559180     0.4308349147    -5.0385285043
    8      H       5.7359000836     0.3827956762    -3.6052351803
    9      H       2.8464730126     0.7226894594    -1.1836662379
   10      H       2.6308231315     0.3065854157    -3.5872945198
 ----------------------------------------------------------------
 Nuclear Repulsion Energy =   105.8629927202 hartrees
 There are       15 alpha and       15 beta electrons

                       Distance Matrix (Angstroms)
             C (  1)   C (  2)   H (  3)   H (  4)   C (  5)   C (  6)
   C (  2)  1.307666
   H (  3)  1.091658  2.156809
   H (  4)  1.046368  2.033566  1.784017
   C (  5)  2.454271  1.455208  2.835273  3.387716
   C (  6)  3.030399  2.453382  2.983850  4.049970  1.311773
   H (  7)  4.077648  3.443278  3.957186  5.106025  2.108435  1.069605
   H (  8)  2.887629  2.755799  2.559748  3.862603  2.113474  1.085935
   H (  9)  2.119273  1.146474  3.147557  2.378928  2.205886  3.370244
   H ( 10)  3.319025  2.150054  3.811618  4.144677  1.109935  2.119387
             H (  7)   H (  8)   H (  9)
   H (  8)  1.789430
   H (  9)  4.272537  3.785276
   H ( 10)  2.502411  3.106064  2.448893

 Applying Cartesian multipole field
    Component          Value
    ---------          -----
     (2,0,0)        1.00000E-12
     (0,2,0)        2.00000E-10
     (0,0,2)       -3.00000E-11
 Nucleus-field energy     =    -0.0000000199 hartrees
 ENuRep (before)= 105.8629927202
 ENucField = -0.0000000199
 ENuRep (after) = 105.8629927003
 Job number = 2, Threshold = 1.00E-11
Integral type ranges set in mkLRange.C for JobNum: 2  <1-6|1-6>
Symmetry turned off temporarily
Symmetry turned back on
 Job number = 11, Threshold = 1.00E-11
Integral type ranges set in mkLRange.C for JobNum: 11  <1-6|7-7>
 Smallest overlap matrix eigenvalue = 1.72E-01
 Multipole matrices computed through 2nd order
 Guess from superposition of atomic densities
 Warning:  Energy on first SCF cycle will be non-variational
 SAD guess density has 30.000000 electrons
 SCF convergence criterion is 10**(-8)
 A restricted Hartree-Fock SCF calculation will be
 performed using Pulay DIIS extrapolation
 SCF converges when DIIS error is below 1.0E-08
Finding J and K together
 Job number = 22, Threshold = 1.00E-11
Integral type ranges set in mkLRange.C for JobNum: 22  <1-6|1-6>
 MakeJK  time:  CPU       0.16 s  wall       0.16 s
Fock build time:  0.16 s (CPU) 0.16 s (wall)
DIIS Errors:  Max 1.15E+00 RMS 2.20E-01

Current DIIS subspace size = 1
REM_GRID_RESTART_DIIS = 0

 ---------------------------------------
  Cycle       Energy         DIIS Error
 ---------------------------------------
    1    -152.7162023241      2.20E-01  00000
Finding J and K together
 Job number = 22, Threshold = 1.00E-11
Integral type ranges set in mkLRange.C for JobNum: 22  <1-6|1-6>
 MakeJK  time:  CPU       0.20 s  wall       0.20 s
Fock build time:  0.20 s (CPU) 0.20 s (wall)
DIIS Errors:  Max 6.25E-02 RMS 1.31E-02

Current DIIS subspace size = 2
REM_GRID_RESTART_DIIS = 0

    2    -152.9825247869      1.31E-02  00000
Finding J and K together
 Job number = 22, Threshold = 1.00E-11
Integral type ranges set in mkLRange.C for JobNum: 22  <1-6|1-6>
 MakeJK  time:  CPU       0.20 s  wall       0.21 s
Fock build time:  0.20 s (CPU) 0.21 s (wall)
DIIS Errors:  Max 1.90E-02 RMS 3.72E-03

Current DIIS subspace size = 3
REM_GRID_RESTART_DIIS = 0

    3    -153.0062634871      3.72E-03  00000
Finding J and K together
 Job number = 22, Threshold = 1.00E-11
Integral type ranges set in mkLRange.C for JobNum: 22  <1-6|1-6>
 MakeJK  time:  CPU       0.20 s  wall       0.20 s
Fock build time:  0.20 s (CPU) 0.20 s (wall)
DIIS Errors:  Max 1.15E-02 RMS 1.66E-03

Current DIIS subspace size = 4
REM_GRID_RESTART_DIIS = 0

    4    -153.0079583422      1.66E-03  00000
Finding J and K together
 Job number = 22, Threshold = 1.00E-11
Integral type ranges set in mkLRange.C for JobNum: 22  <1-6|1-6>
 MakeJK  time:  CPU       0.20 s  wall       0.20 s
Fock build time:  0.20 s (CPU) 0.20 s (wall)
DIIS Errors:  Max 7.56E-04 RMS 8.59E-05

Current DIIS subspace size = 5
REM_GRID_RESTART_DIIS = 0

    5    -153.0082392724      8.59E-05  00000
Finding J and K together
 Job number = 22, Threshold = 1.00E-11
Integral type ranges set in mkLRange.C for JobNum: 22  <1-6|1-6>
 MakeJK  time:  CPU       0.19 s  wall       0.19 s
Fock build time:  0.19 s (CPU) 0.19 s (wall)
DIIS Errors:  Max 1.78E-04 RMS 2.12E-05

Current DIIS subspace size = 6
REM_GRID_RESTART_DIIS = 0

    6    -153.0082414537      2.12E-05  00000
Finding J and K together
 Job number = 22, Threshold = 1.00E-11
Integral type ranges set in mkLRange.C for JobNum: 22  <1-6|1-6>
 MakeJK  time:  CPU       0.18 s  wall       0.19 s
Fock build time:  0.18 s (CPU) 0.19 s (wall)
DIIS Errors:  Max 2.51E-05 RMS 5.42E-06

Current DIIS subspace size = 7
REM_GRID_RESTART_DIIS = 0

    7    -153.0082415877      5.42E-06  00000
Finding J and K together
 Job number = 22, Threshold = 1.00E-11
Integral type ranges set in mkLRange.C for JobNum: 22  <1-6|1-6>
 MakeJK  time:  CPU       0.19 s  wall       0.19 s
Fock build time:  0.19 s (CPU) 0.19 s (wall)
DIIS Errors:  Max 8.80E-06 RMS 1.48E-06

Current DIIS subspace size = 8
REM_GRID_RESTART_DIIS = 0

    8    -153.0082415926      1.48E-06  00000
Finding J and K together
 Job number = 22, Threshold = 1.00E-11
Integral type ranges set in mkLRange.C for JobNum: 22  <1-6|1-6>
 MakeJK  time:  CPU       0.19 s  wall       0.19 s
Fock build time:  0.19 s (CPU) 0.19 s (wall)
DIIS Errors:  Max 1.83E-06 RMS 3.60E-07

Current DIIS subspace size = 9
REM_GRID_RESTART_DIIS = 0

    9    -153.0082415929      3.60E-07  00000
Finding J and K together
 Job number = 22, Threshold = 1.00E-11
Integral type ranges set in mkLRange.C for JobNum: 22  <1-6|1-6>
 MakeJK  time:  CPU       0.20 s  wall       0.21 s
Fock build time:  0.20 s (CPU) 0.21 s (wall)
DIIS Errors:  Max 4.36E-07 RMS 8.48E-08

Current DIIS subspace size = 10
REM_GRID_RESTART_DIIS = 0

   10    -153.0082415929      8.48E-08  00000
Finding J and K together
 Job number = 22, Threshold = 1.00E-11
Integral type ranges set in mkLRange.C for JobNum: 22  <1-6|1-6>
 MakeJK  time:  CPU       0.19 s  wall       0.20 s
Fock build time:  0.19 s (CPU) 0.20 s (wall)
DIIS Errors:  Max 8.18E-08 RMS 1.42E-08

Current DIIS subspace size = 11
REM_GRID_RESTART_DIIS = 0

   11    -153.0082415929      1.42E-08  00000
Finding J and K together
 Job number = 22, Threshold = 1.00E-11
Integral type ranges set in mkLRange.C for JobNum: 22  <1-6|1-6>
 MakeJK  time:  CPU       0.19 s  wall       0.21 s
Fock build time:  0.19 s (CPU) 0.21 s (wall)
DIIS Errors:  Max 2.21E-08 RMS 4.20E-09

Current DIIS subspace size = 12
REM_GRID_RESTART_DIIS = 0

   12    -153.0082415929      4.20E-09  00000 Convergence criterion met
 ---------------------------------------
 SCF time:  CPU 2.32 s  wall 2.39 s
 SCF   energy in the final basis set = -153.00824159
 Total energy in the final basis set = -153.00824159
drvman_main.C: 73: calling DrvMan  Calculating analytic gradient of the SCF energy
drvman.C : 218: Calculating analytic gradient of the SCF energy
drvman.C: 244: calling SCF_Grad for normal SCF gradient
 Job number = 111, Threshold = 1.00E-11
Integral type ranges set in mkLRange.C for JobNum: 11  <1-6|7-7>
Finding J and K together
 ML is being used
 Job number = 122, Threshold = 1.00E-11
Integral type ranges set in mkLRange.C for JobNum: 22  <1-6|1-6>
 MakeJK  time:  CPU       0.52 s  wall       0.58 s
 Gradient of SCF Energy
            1           2           3           4           5           6
    1  -0.0124784   0.0330914   0.0108901   0.0009676   0.0249500  -0.0113078
    2   0.0073219  -0.0165577  -0.0080954   0.0004426  -0.0078056   0.0083903
    3   0.0129543  -0.0432728   0.0070133  -0.0368900   0.0354741  -0.0029484
            7           8           9          10
    1   0.0082371   0.0057348  -0.0375368  -0.0225482
    2  -0.0022485  -0.0024280   0.0217303  -0.0007499
    3   0.0114803  -0.0055461   0.0222668  -0.0005316
 Max gradient component =       4.327E-02
 RMS gradient           =       1.873E-02
drvman.C: 248: out of SCF_Grad for normal SCF gradient
 Gradient time:  CPU 0.54 s  wall 0.60 s
 ------------------------------------------------------------------------------
                     drvman        : Timing summary (seconds)
 ------------------------------------------------------------------------------
     job step          cpu (% of tot)      sys (% of tot)     wall (% of tot)
 ------------------------------------------------------------------------------
 ------------------------------------------------------------------------------
   Grand Totals     0.5440E+00          0.0000E+00          0.6043E+00
 ------------------------------------------------------------------------------
drvman_main.C: 77: out of DrvMan  Time for this dynamics step: 2.9 s (CPU) 3.0 s (wall)

TIME STEP #6 (t = 100.000 a.u. = 2.41888 fs)
--------------------------------------
 Instantaneous Temperature = 270.5 K
 ----------------------------------------------------------------
             Standard Nuclear Orientation (Angstroms)
    I     Atom           X                Y                Z
 ----------------------------------------------------------------
    1      C       4.6454574395    -0.3815657276    -1.0469558865
    2      C       3.7189420597     0.2216122164    -1.7329487606
    3      H       5.5125584075    -0.9362910509    -1.4074697433
    4      H       4.5815126957    -0.3769879880     0.0010689772
    5      C       3.6671194223     0.2961423986    -3.1906371934
    6      C       4.7123944644     0.3945444179    -3.9669079487
    7      H       4.6802596714     0.4214955006    -5.0372701547
    8      H       5.7338683468     0.3770416668    -3.6027010055
    9      H       2.8506053285     0.7219316968    -1.1857616938
   10      H       2.6321391066     0.3027440838    -3.5827461064
 ----------------------------------------------------------------
 Nuclear Repulsion Energy =   106.0189506454 hartrees
 There are       15 alpha and       15 beta electrons

                       Distance Matrix (Angstroms)
             C (  1)   C (  2)   H (  3)   H (  4)   C (  5)   C (  6)
   C (  2)  1.301092
   H (  3)  1.090667  2.159569
   H (  4)  1.049984  2.027108  1.778664
   C (  5)  2.451898  1.460512  2.846792  3.387655
   C (  6)  3.022077  2.451005  2.993678  4.044408  1.305710
   H (  7)  4.070470  3.447118  3.963806  5.102175  2.110028  1.071184
   H (  8)  2.879576  2.753191  2.567657  3.857932  2.108979  1.084602
   H (  9)  2.111508  1.141815  3.144018  2.369015  2.206245  3.362769
   H ( 10)  3.309375  2.146968  3.816261  4.135919  1.106787  2.117421
             H (  7)   H (  8)   H (  9)
   H (  8)  1.780465
   H (  9)  4.274578  3.778062
   H ( 10)  2.514864  3.102683  2.443150

 Applying Cartesian multipole field
    Component          Value
    ---------          -----
     (2,0,0)        1.00000E-12
     (0,2,0)        2.00000E-10
     (0,0,2)       -3.00000E-11
 Nucleus-field energy     =    -0.0000000199 hartrees
 ENuRep (before)= 106.0189506454
 ENucField = -0.0000000199
 ENuRep (after) = 106.0189506255
 Job number = 2, Threshold = 1.00E-11
Integral type ranges set in mkLRange.C for JobNum: 2  <1-6|1-6>
Symmetry turned off temporarily
Symmetry turned back on
 Job number = 11, Threshold = 1.00E-11
Integral type ranges set in mkLRange.C for JobNum: 11  <1-6|7-7>
 Smallest overlap matrix eigenvalue = 1.70E-01
 Multipole matrices computed through 2nd order
 Guess from superposition of atomic densities
 Warning:  Energy on first SCF cycle will be non-variational
 SAD guess density has 30.000000 electrons
 SCF convergence criterion is 10**(-8)
 A restricted Hartree-Fock SCF calculation will be
 performed using Pulay DIIS extrapolation
 SCF converges when DIIS error is below 1.0E-08
Finding J and K together
 Job number = 22, Threshold = 1.00E-11
Integral type ranges set in mkLRange.C for JobNum: 22  <1-6|1-6>
 MakeJK  time:  CPU       0.15 s  wall       0.16 s
Fock build time:  0.15 s (CPU) 0.16 s (wall)
DIIS Errors:  Max 1.17E+00 RMS 2.21E-01

Current DIIS subspace size = 1
REM_GRID_RESTART_DIIS = 0

 ---------------------------------------
  Cycle       Energy         DIIS Error
 ---------------------------------------
    1    -152.7388041966      2.21E-01  00000
Finding J and K together
 Job number = 22, Threshold = 1.00E-11
Integral type ranges set in mkLRange.C for JobNum: 22  <1-6|1-6>
 MakeJK  time:  CPU       0.20 s  wall       0.22 s
Fock build time:  0.20 s (CPU) 0.22 s (wall)
DIIS Errors:  Max 6.28E-02 RMS 1.31E-02

Current DIIS subspace size = 2
REM_GRID_RESTART_DIIS = 0

    2    -152.9825706497      1.31E-02  00000
Finding J and K together
 Job number = 22, Threshold = 1.00E-11
Integral type ranges set in mkLRange.C for JobNum: 22  <1-6|1-6>
 MakeJK  time:  CPU       0.19 s  wall       0.20 s
Fock build time:  0.19 s (CPU) 0.20 s (wall)
DIIS Errors:  Max 1.90E-02 RMS 3.70E-03

Current DIIS subspace size = 3
REM_GRID_RESTART_DIIS = 0

    3    -153.0062743221      3.70E-03  00000
Finding J and K together
 Job number = 22, Threshold = 1.00E-11
Integral type ranges set in mkLRange.C for JobNum: 22  <1-6|1-6>
 MakeJK  time:  CPU       0.18 s  wall       0.21 s
Fock build time:  0.18 s (CPU) 0.21 s (wall)
DIIS Errors:  Max 1.12E-02 RMS 1.62E-03

Current DIIS subspace size = 4
REM_GRID_RESTART_DIIS = 0

    4    -153.0079540665      1.62E-03  00000
Finding J and K together
 Job number = 22, Threshold = 1.00E-11
Integral type ranges set in mkLRange.C for JobNum: 22  <1-6|1-6>
 MakeJK  time:  CPU       0.20 s  wall       0.22 s
Fock build time:  0.20 s (CPU) 0.22 s (wall)
DIIS Errors:  Max 7.21E-04 RMS 8.26E-05

Current DIIS subspace size = 5
REM_GRID_RESTART_DIIS = 0

    5    -153.0082219753      8.26E-05  00000
Finding J and K together
 Job number = 22, Threshold = 1.00E-11
Integral type ranges set in mkLRange.C for JobNum: 22  <1-6|1-6>
 MakeJK  time:  CPU       0.20 s  wall       0.24 s
Fock build time:  0.20 s (CPU) 0.24 s (wall)
DIIS Errors:  Max 1.71E-04 RMS 2.03E-05

Current DIIS subspace size = 6
REM_GRID_RESTART_DIIS = 0

    6    -153.0082239600      2.03E-05  00000
Finding J and K together
 Job number = 22, Threshold = 1.00E-11
Integral type ranges set in mkLRange.C for JobNum: 22  <1-6|1-6>
 MakeJK  time:  CPU       0.20 s  wall       0.21 s
Fock build time:  0.20 s (CPU) 0.21 s (wall)
DIIS Errors:  Max 2.36E-05 RMS 5.03E-06

Current DIIS subspace size = 7
REM_GRID_RESTART_DIIS = 0

    7    -153.0082240834      5.03E-06  00000
Finding J and K together
 Job number = 22, Threshold = 1.00E-11
Integral type ranges set in mkLRange.C for JobNum: 22  <1-6|1-6>
 MakeJK  time:  CPU       0.20 s  wall       0.21 s
Fock build time:  0.20 s (CPU) 0.21 s (wall)
DIIS Errors:  Max 8.60E-06 RMS 1.40E-06

Current DIIS subspace size = 8
REM_GRID_RESTART_DIIS = 0

    8    -153.0082240876      1.40E-06  00000
Finding J and K together
 Job number = 22, Threshold = 1.00E-11
Integral type ranges set in mkLRange.C for JobNum: 22  <1-6|1-6>
 MakeJK  time:  CPU       0.19 s  wall       0.20 s
Fock build time:  0.19 s (CPU) 0.20 s (wall)
DIIS Errors:  Max 1.78E-06 RMS 3.41E-07

Current DIIS subspace size = 9
REM_GRID_RESTART_DIIS = 0

    9    -153.0082240879      3.41E-07  00000
Finding J and K together
 Job number = 22, Threshold = 1.00E-11
Integral type ranges set in mkLRange.C for JobNum: 22  <1-6|1-6>
 MakeJK  time:  CPU       0.20 s  wall       0.20 s
Fock build time:  0.20 s (CPU) 0.20 s (wall)
DIIS Errors:  Max 4.29E-07 RMS 7.90E-08

Current DIIS subspace size = 10
REM_GRID_RESTART_DIIS = 0

   10    -153.0082240879      7.90E-08  00000
Finding J and K together
 Job number = 22, Threshold = 1.00E-11
Integral type ranges set in mkLRange.C for JobNum: 22  <1-6|1-6>
 MakeJK  time:  CPU       0.20 s  wall       0.21 s
Fock build time:  0.20 s (CPU) 0.21 s (wall)
DIIS Errors:  Max 7.71E-08 RMS 1.30E-08

Current DIIS subspace size = 11
REM_GRID_RESTART_DIIS = 0

   11    -153.0082240879      1.30E-08  00000
Finding J and K together
 Job number = 22, Threshold = 1.00E-11
Integral type ranges set in mkLRange.C for JobNum: 22  <1-6|1-6>
 MakeJK  time:  CPU       0.20 s  wall       0.20 s
Fock build time:  0.20 s (CPU) 0.20 s (wall)
DIIS Errors:  Max 2.27E-08 RMS 3.87E-09

Current DIIS subspace size = 12
REM_GRID_RESTART_DIIS = 0

   12    -153.0082240879      3.87E-09  00000 Convergence criterion met
 ---------------------------------------
 SCF time:  CPU 2.37 s  wall 2.52 s
 SCF   energy in the final basis set = -153.00822409
 Total energy in the final basis set = -153.00822409
drvman_main.C: 73: calling DrvMan  Calculating analytic gradient of the SCF energy
drvman.C : 218: Calculating analytic gradient of the SCF energy
drvman.C: 244: calling SCF_Grad for normal SCF gradient
 Job number = 111, Threshold = 1.00E-11
Integral type ranges set in mkLRange.C for JobNum: 11  <1-6|7-7>
Finding J and K together
 ML is being used
 Job number = 122, Threshold = 1.00E-11
Integral type ranges set in mkLRange.C for JobNum: 22  <1-6|1-6>
 MakeJK  time:  CPU       0.53 s  wall       0.54 s
 Gradient of SCF Energy
            1           2           3           4           5           6
    1  -0.0187553   0.0368605   0.0105043   0.0010136   0.0306791  -0.0190826
    2   0.0123083  -0.0204637  -0.0082313   0.0002880  -0.0067136   0.0087035
    3  -0.0004347  -0.0306410   0.0094048  -0.0332901   0.0240569   0.0057868
            7           8           9          10
    1   0.0097720   0.0048442  -0.0352609  -0.0205750
    2  -0.0026533  -0.0027921   0.0204606  -0.0009064
    3   0.0101411  -0.0072889   0.0206903   0.0015747
 Max gradient component =       3.686E-02
 RMS gradient           =       1.774E-02
drvman.C: 248: out of SCF_Grad for normal SCF gradient
 Gradient time:  CPU 0.55 s  wall 0.57 s
 ------------------------------------------------------------------------------
                     drvman        : Timing summary (seconds)
 ------------------------------------------------------------------------------
     job step          cpu (% of tot)      sys (% of tot)     wall (% of tot)
 ------------------------------------------------------------------------------
 ------------------------------------------------------------------------------
   Grand Totals     0.5480E+00          0.2000E-05          0.5673E+00
 ------------------------------------------------------------------------------
drvman_main.C: 77: out of DrvMan  Time for this dynamics step: 3.0 s (CPU) 3.1 s (wall)

TIME STEP #7 (t = 120.000 a.u. = 2.90266 fs)
--------------------------------------
 Instantaneous Temperature = 269.7 K
 ----------------------------------------------------------------
             Standard Nuclear Orientation (Angstroms)
    I     Atom           X                Y                Z
 ----------------------------------------------------------------
    1      C       4.6438997111    -0.3772997073    -1.0503424576
    2      C       3.7189313204     0.2209868753    -1.7309804894
    3      H       5.5122142415    -0.9369476279    -1.3939701134
    4      H       4.5771112427    -0.3673687404     0.0049733893
    5      C       3.6679390557     0.2952439041    -3.1945477021
    6      C       4.7116295492     0.3928399122    -3.9633223176
    7      H       4.6937375296     0.4124617840    -5.0371802199
    8      H       5.7312784788     0.3716093569    -3.5993270338
    9      H       2.8588002752     0.7188165432    -1.1902410094
   10      H       2.6358256562     0.2990071872    -3.5783791270
[...]
 Total energy in the final basis set = -153.01033799
drvman_main.C: 73: calling DrvMan  Calculating analytic gradient of the SCF energy
drvman.C : 218: Calculating analytic gradient of the SCF energy
drvman.C: 244: calling SCF_Grad for normal SCF gradient
 Job number = 111, Threshold = 1.00E-11
Integral type ranges set in mkLRange.C for JobNum: 11  <1-6|7-7>
Finding J and K together
 ML is being used
 Job number = 122, Threshold = 1.00E-11
Integral type ranges set in mkLRange.C for JobNum: 22  <1-6|1-6>
 MakeJK  time:  CPU       0.38 s  wall       0.39 s
 Gradient of SCF Energy
            1           2           3           4           5           6
    1   0.0064297  -0.0270582   0.0072488   0.0027332  -0.0120488   0.0150103
    2   0.0128317  -0.0007620   0.0004964  -0.0001614   0.0208918  -0.0278684
    3   0.0278565  -0.0076247  -0.0018572  -0.0038583   0.0121036  -0.0407339
            7           8           9          10
    1   0.0113789   0.0048325  -0.0098865   0.0013601
    2   0.0004001   0.0026563  -0.0058879  -0.0025966
    3   0.0034726   0.0050159   0.0015442   0.0040812
 Max gradient component =       4.073E-02
 RMS gradient           =       1.366E-02
drvman.C: 248: out of SCF_Grad for normal SCF gradient
 Gradient time:  CPU 0.41 s  wall 0.41 s
 ------------------------------------------------------------------------------
                     drvman        : Timing summary (seconds)
 ------------------------------------------------------------------------------
     job step          cpu (% of tot)      sys (% of tot)     wall (% of tot)
 ------------------------------------------------------------------------------
 ------------------------------------------------------------------------------
   Grand Totals     0.4080E+00          0.0000E+00          0.4092E+00
 ------------------------------------------------------------------------------
drvman_main.C: 77: out of DrvMan  Time for this dynamics step: 1.7 s (CPU) 1.7 s (wall)

TIME STEP #399 (t = 7960.000 a.u. = 192.54319 fs)
--------------------------------------
 Instantaneous Temperature = 312.6 K
 ----------------------------------------------------------------
             Standard Nuclear Orientation (Angstroms)
    I     Atom           X                Y                Z
 ----------------------------------------------------------------
    1      C       4.1462854824     0.8863648473    -0.9957561169
    2      C       3.4279529715     0.3031469608    -1.9667317565
    3      H       5.1985104015     1.1128067733    -1.1485399573
    4      H       3.7359938735     1.1641284309    -0.0550062993
    5      C       3.9854447299    -0.0843081850    -3.3220991176
    6      C       5.1811449930    -0.5979221415    -3.6633598796
    7      H       5.5161855241    -0.8343051785    -4.6558317292
    8      H       5.9592216477    -0.6964929629    -2.9081420925
    9      H       2.3777862220     0.0578172960    -1.8217022992
   10      H       3.2399807647    -0.0147849876    -4.1006710167
 ----------------------------------------------------------------
 Nuclear Repulsion Energy =   103.3969429542 hartrees
 There are       15 alpha and       15 beta electrons

                       Distance Matrix (Angstroms)
             C (  1)   C (  2)   H (  3)   H (  4)   C (  5)   C (  6)
   C (  2)  1.341245
   H (  3)  1.087104  2.111838
   H (  4)  1.063251  2.119168  1.826856
   C (  5)  2.525856  1.515896  2.762059  3.506382
   C (  6)  3.223376  2.600799  3.041581  4.267728  1.345347
   H (  7)  4.270068  3.589676  4.024085  5.322632  2.164372  1.073839
   H (  8)  3.073987  2.879732  2.635991  4.067559  2.107588  1.088794
   H (  9)  2.120440  1.088150  3.085877  2.487944  2.203623  3.417677
   H ( 10)  3.357671  2.165666  3.717846  4.243026  1.080150  2.073502
             H (  7)   H (  8)   H (  9)
   H (  8)  1.808229
   H (  9)  4.321773  3.817855
   H ( 10)  2.482121  3.046493  2.437693

 Applying Cartesian multipole field
    Component          Value
    ---------          -----
     (2,0,0)        1.00000E-12
     (0,2,0)        2.00000E-10
     (0,0,2)       -3.00000E-11
 Nucleus-field energy     =    -0.0000000144 hartrees
 ENuRep (before)= 103.3969429542
 ENucField = -0.0000000144
 ENuRep (after) = 103.3969429399
 Job number = 2, Threshold = 1.00E-11
Integral type ranges set in mkLRange.C for JobNum: 2  <1-6|1-6>
Symmetry turned off temporarily
Symmetry turned back on
 Job number = 11, Threshold = 1.00E-11
Integral type ranges set in mkLRange.C for JobNum: 11  <1-6|7-7>
 Smallest overlap matrix eigenvalue = 1.89E-01
 Multipole matrices computed through 2nd order
 Extrapolating the Fock matrix using 12 points and a 6th-order polynomial
 Alpha Fock matrix extrapolation
 Skip SCF guess (diagonalize extrapolated Fock matrix instead)
 SCF convergence criterion is 10**(-8)
 A restricted Hartree-Fock SCF calculation will be
 performed using Pulay DIIS extrapolation
 SCF converges when DIIS error is below 1.0E-08
Extrapolated Fock matrix used in lieu of Fock build
Fock build time:  0.00 s (CPU) 0.00 s (wall)
DIIS Errors:  Max 2.23E-02 RMS 3.51E-03

Current DIIS subspace size = 1
REM_GRID_RESTART_DIIS = 0

 ---------------------------------------
  Cycle       Energy         DIIS Error
 ---------------------------------------
    1    -307.8784301062      3.51E-03  00000
Finding J and K together
 Job number = 22, Threshold = 1.00E-11
Integral type ranges set in mkLRange.C for JobNum: 22  <1-6|1-6>
 MakeJK  time:  CPU       0.19 s  wall       0.19 s
Fock build time:  0.19 s (CPU) 0.20 s (wall)
DIIS Errors:  Max 5.09E-04 RMS 6.51E-05

Current DIIS subspace size = 2
REM_GRID_RESTART_DIIS = 0

    2    -153.0092556537      6.51E-05  00000
Finding J and K together
 Job number = 22, Threshold = 1.00E-11
Integral type ranges set in mkLRange.C for JobNum: 22  <1-6|1-6>
 MakeJK  time:  CPU       0.20 s  wall       0.20 s
Fock build time:  0.20 s (CPU) 0.21 s (wall)
DIIS Errors:  Max 2.88E-05 RMS 4.39E-06

Current DIIS subspace size = 3
REM_GRID_RESTART_DIIS = 0

    3    -153.0092557287      4.39E-06  00000
Finding J and K together
 Job number = 22, Threshold = 1.00E-11
Integral type ranges set in mkLRange.C for JobNum: 22  <1-6|1-6>
 MakeJK  time:  CPU       0.14 s  wall       0.14 s
Fock build time:  0.14 s (CPU) 0.14 s (wall)
DIIS Errors:  Max 5.90E-06 RMS 8.36E-07

Current DIIS subspace size = 4
REM_GRID_RESTART_DIIS = 0

    4    -153.0092557297      8.36E-07  00000
Finding J and K together
 Job number = 22, Threshold = 1.00E-11
Integral type ranges set in mkLRange.C for JobNum: 22  <1-6|1-6>
 MakeJK  time:  CPU       0.14 s  wall       0.14 s
Fock build time:  0.14 s (CPU) 0.14 s (wall)
DIIS Errors:  Max 2.30E-06 RMS 3.58E-07

Current DIIS subspace size = 5
REM_GRID_RESTART_DIIS = 0

    5    -153.0092557297      3.58E-07  00000
Finding J and K together
 Job number = 22, Threshold = 1.00E-11
Integral type ranges set in mkLRange.C for JobNum: 22  <1-6|1-6>
 MakeJK  time:  CPU       0.18 s  wall       0.19 s
Fock build time:  0.18 s (CPU) 0.19 s (wall)
DIIS Errors:  Max 3.09E-07 RMS 5.79E-08

Current DIIS subspace size = 6
REM_GRID_RESTART_DIIS = 0

    6    -153.0092557297      5.79E-08  00000
Finding J and K together
 Job number = 22, Threshold = 1.00E-11
Integral type ranges set in mkLRange.C for JobNum: 22  <1-6|1-6>
 MakeJK  time:  CPU       0.20 s  wall       0.21 s
Fock build time:  0.20 s (CPU) 0.21 s (wall)
DIIS Errors:  Max 1.74E-07 RMS 2.58E-08

Current DIIS subspace size = 7
REM_GRID_RESTART_DIIS = 0

    7    -153.0092557297      2.58E-08  00000
Finding J and K together
 Job number = 22, Threshold = 1.00E-11
Integral type ranges set in mkLRange.C for JobNum: 22  <1-6|1-6>
 MakeJK  time:  CPU       0.15 s  wall       0.15 s
Fock build time:  0.15 s (CPU) 0.16 s (wall)
DIIS Errors:  Max 4.34E-08 RMS 8.16E-09

Current DIIS subspace size = 8
REM_GRID_RESTART_DIIS = 0

    8    -153.0092557297      8.16E-09  00000 Convergence criterion met
 ---------------------------------------
 SCF time:  CPU 1.20 s  wall 1.25 s
 SCF   energy in the final basis set = -153.00925573
 Total energy in the final basis set = -153.00925573
drvman_main.C: 73: calling DrvMan  Calculating analytic gradient of the SCF energy
drvman.C : 218: Calculating analytic gradient of the SCF energy
drvman.C: 244: calling SCF_Grad for normal SCF gradient
 Job number = 111, Threshold = 1.00E-11
Integral type ranges set in mkLRange.C for JobNum: 11  <1-6|7-7>
Finding J and K together
 ML is being used
 Job number = 122, Threshold = 1.00E-11
Integral type ranges set in mkLRange.C for JobNum: 22  <1-6|1-6>
 MakeJK  time:  CPU       0.38 s  wall       0.37 s
 Gradient of SCF Energy
            1           2           3           4           5           6
    1   0.0101661  -0.0397332   0.0048913   0.0083749  -0.0242486   0.0258643
    2   0.0227326  -0.0100813  -0.0000791  -0.0031215   0.0254829  -0.0330408
    3   0.0498455  -0.0212141  -0.0016537  -0.0153560   0.0154626  -0.0457411
            7           8           9          10
    1   0.0093831   0.0038729  -0.0021756   0.0036050
    2   0.0021283   0.0028200  -0.0042414  -0.0025996
    3   0.0096177   0.0026870   0.0003312   0.0060209
 Max gradient component =       4.985E-02
 RMS gradient           =       1.932E-02
drvman.C: 248: out of SCF_Grad for normal SCF gradient
 Gradient time:  CPU 0.39 s  wall 0.39 s
 ------------------------------------------------------------------------------
                     drvman        : Timing summary (seconds)
 ------------------------------------------------------------------------------
     job step          cpu (% of tot)      sys (% of tot)     wall (% of tot)
 ------------------------------------------------------------------------------
 ------------------------------------------------------------------------------
   Grand Totals     0.3880E+00          0.2000E-05          0.3900E+00
 ------------------------------------------------------------------------------
drvman_main.C: 77: out of DrvMan  Time for this dynamics step: 1.6 s (CPU) 1.7 s (wall)

TIME STEP #400 (t = 7980.000 a.u. = 193.02697 fs)
--------------------------------------
 Instantaneous Temperature = 290.2 K
 ----------------------------------------------------------------
             Standard Nuclear Orientation (Angstroms)
    I     Atom           X                Y                Z
 ----------------------------------------------------------------
    1      C       4.1471063692     0.8899724201    -0.9946071164
    2      C       3.4254177102     0.3010487842    -1.9722140868
    3      H       5.1962436701     1.1122353344    -1.1516384208
    4      H       3.7435677495     1.1725729040    -0.0646992274
    5      C       3.9826524047    -0.0849228720    -3.3195085090
    6      C       5.1842053319    -0.5999965059    -3.6600512036
    7      H       5.5135287166    -0.8286573714    -4.6501646883
    8      H       5.9644468137    -0.6989243311    -2.9119857623
    9      H       2.3830915721     0.0611269202    -1.8286733601
   10      H       3.2440213973    -0.0151382014    -4.1013773987
 ----------------------------------------------------------------
 Nuclear Repulsion Energy =   103.4222786123 hartrees
 There are       15 alpha and       15 beta electrons

                       Distance Matrix (Angstroms)
             C (  1)   C (  2)   H (  3)   H (  4)   C (  5)   C (  6)
   C (  2)  1.350326
   H (  3)  1.083858  2.113573
   H (  4)  1.052347  2.121176  1.815308
   C (  5)  2.526387  1.508207  2.757835  3.497462
   C (  6)  3.224930  2.598848  3.037107  4.259577  1.350925
   H (  7)  4.264258  3.578807  4.013405  5.306993  2.160409  1.068206
   H (  8)  3.082801  2.886137  2.639935  4.067167  2.114375  1.085433
   H (  9)  2.120000  1.079171  3.078479  2.489541  2.191464  3.411344
   H ( 10)  3.359585  2.160142  3.712560  4.237331  1.077852  2.073919
             H (  7)   H (  8)   H (  9)
   H (  8)  1.800395
   H (  9)  4.307223  3.818029
   H ( 10)  2.472578  3.046790  2.431502

 Applying Cartesian multipole field
    Component          Value
    ---------          -----
     (2,0,0)        1.00000E-12
     (0,2,0)        2.00000E-10
     (0,0,2)       -3.00000E-11
 Nucleus-field energy     =    -0.0000000143 hartrees
 ENuRep (before)= 103.4222786123
 ENucField = -0.0000000143
 ENuRep (after) = 103.4222785979
 Job number = 2, Threshold = 1.00E-11
Integral type ranges set in mkLRange.C for JobNum: 2  <1-6|1-6>
Symmetry turned off temporarily
Symmetry turned back on
 Job number = 11, Threshold = 1.00E-11
Integral type ranges set in mkLRange.C for JobNum: 11  <1-6|7-7>
 Smallest overlap matrix eigenvalue = 1.91E-01
 Multipole matrices computed through 2nd order
 Extrapolating the Fock matrix using 12 points and a 6th-order polynomial
 Alpha Fock matrix extrapolation
 Skip SCF guess (diagonalize extrapolated Fock matrix instead)
 SCF convergence criterion is 10**(-8)
 A restricted Hartree-Fock SCF calculation will be
 performed using Pulay DIIS extrapolation
 SCF converges when DIIS error is below 1.0E-08
Extrapolated Fock matrix used in lieu of Fock build
Fock build time:  0.00 s (CPU) 0.00 s (wall)
DIIS Errors:  Max 1.85E-02 RMS 3.16E-03

Current DIIS subspace size = 1
REM_GRID_RESTART_DIIS = 0

 ---------------------------------------
  Cycle       Energy         DIIS Error
 ---------------------------------------
    1    -307.8802019245      3.16E-03  00000
Finding J and K together
 Job number = 22, Threshold = 1.00E-11
Integral type ranges set in mkLRange.C for JobNum: 22  <1-6|1-6>
 MakeJK  time:  CPU       0.12 s  wall       0.12 s
Fock build time:  0.12 s (CPU) 0.12 s (wall)
DIIS Errors:  Max 1.41E-03 RMS 1.18E-04

Current DIIS subspace size = 2
REM_GRID_RESTART_DIIS = 0

    2    -153.0075327190      1.18E-04  00000
Finding J and K together
 Job number = 22, Threshold = 1.00E-11
Integral type ranges set in mkLRange.C for JobNum: 22  <1-6|1-6>
 MakeJK  time:  CPU       0.11 s  wall       0.11 s
Fock build time:  0.11 s (CPU) 0.11 s (wall)
DIIS Errors:  Max 7.58E-05 RMS 7.32E-06

Current DIIS subspace size = 3
REM_GRID_RESTART_DIIS = 0

    3    -153.0075329445      7.32E-06  00000
Finding J and K together
 Job number = 22, Threshold = 1.00E-11
Integral type ranges set in mkLRange.C for JobNum: 22  <1-6|1-6>
 MakeJK  time:  CPU       0.12 s  wall       0.12 s
Fock build time:  0.12 s (CPU) 0.12 s (wall)
DIIS Errors:  Max 8.60E-06 RMS 1.09E-06

Current DIIS subspace size = 4
REM_GRID_RESTART_DIIS = 0

    4    -153.0075329463      1.09E-06  00000
Finding J and K together
 Job number = 22, Threshold = 1.00E-11
Integral type ranges set in mkLRange.C for JobNum: 22  <1-6|1-6>
 MakeJK  time:  CPU       0.11 s  wall       0.11 s
Fock build time:  0.11 s (CPU) 0.11 s (wall)
DIIS Errors:  Max 2.66E-06 RMS 4.82E-07

Current DIIS subspace size = 5
REM_GRID_RESTART_DIIS = 0

    5    -153.0075329465      4.82E-07  00000
Finding J and K together
 Job number = 22, Threshold = 1.00E-11
Integral type ranges set in mkLRange.C for JobNum: 22  <1-6|1-6>
 MakeJK  time:  CPU       0.12 s  wall       0.13 s
Fock build time:  0.12 s (CPU) 0.13 s (wall)
DIIS Errors:  Max 5.35E-07 RMS 9.20E-08

Current DIIS subspace size = 6
REM_GRID_RESTART_DIIS = 0

    6    -153.0075329465      9.20E-08  00000
Finding J and K together
 Job number = 22, Threshold = 1.00E-11
Integral type ranges set in mkLRange.C for JobNum: 22  <1-6|1-6>
 MakeJK  time:  CPU       0.14 s  wall       0.14 s
Fock build time:  0.14 s (CPU) 0.14 s (wall)
DIIS Errors:  Max 2.59E-07 RMS 4.36E-08

Current DIIS subspace size = 7
REM_GRID_RESTART_DIIS = 0

    7    -153.0075329465      4.36E-08  00000
Finding J and K together
 Job number = 22, Threshold = 1.00E-11
Integral type ranges set in mkLRange.C for JobNum: 22  <1-6|1-6>
 MakeJK  time:  CPU       0.14 s  wall       0.15 s
Fock build time:  0.14 s (CPU) 0.15 s (wall)
DIIS Errors:  Max 7.22E-08 RMS 1.31E-08

Current DIIS subspace size = 8
REM_GRID_RESTART_DIIS = 0

    8    -153.0075329465      1.31E-08  00000
Finding J and K together
 Job number = 22, Threshold = 1.00E-11
Integral type ranges set in mkLRange.C for JobNum: 22  <1-6|1-6>
 MakeJK  time:  CPU       0.12 s  wall       0.12 s
Fock build time:  0.12 s (CPU) 0.12 s (wall)
DIIS Errors:  Max 9.38E-09 RMS 1.65E-09

Current DIIS subspace size = 9
REM_GRID_RESTART_DIIS = 0

    9    -153.0075329465      1.65E-09  00000 Convergence criterion met
 ---------------------------------------
 SCF time:  CPU 1.01 s  wall 1.02 s
 SCF   energy in the final basis set = -153.00753295
 Total energy in the final basis set = -153.00753295
drvman_main.C: 73: calling DrvMan  Calculating analytic gradient of the SCF energy
drvman.C : 218: Calculating analytic gradient of the SCF energy
drvman.C: 244: calling SCF_Grad for normal SCF gradient
 Job number = 111, Threshold = 1.00E-11
Integral type ranges set in mkLRange.C for JobNum: 11  <1-6|7-7>
Finding J and K together
 ML is being used
 Job number = 122, Threshold = 1.00E-11
Integral type ranges set in mkLRange.C for JobNum: 22  <1-6|1-6>
 MakeJK  time:  CPU       0.34 s  wall       0.35 s
 Gradient of SCF Energy
            1           2           3           4           5           6
    1   0.0140107  -0.0515403   0.0020568   0.0132983  -0.0348124   0.0357924
    2   0.0315929  -0.0186612  -0.0007036  -0.0057802   0.0293814  -0.0373276
    3   0.0686990  -0.0333267  -0.0013376  -0.0252061   0.0187921  -0.0487681
            7           8           9          10
    1   0.0076043   0.0024902   0.0058604   0.0052397
    2   0.0035452   0.0030003  -0.0025313  -0.0025161
    3   0.0146887   0.0000108  -0.0009331   0.0073809
 Max gradient component =       6.870E-02
 RMS gradient           =       2.503E-02
drvman.C: 248: out of SCF_Grad for normal SCF gradient
 Gradient time:  CPU 0.36 s  wall 0.37 s
 ------------------------------------------------------------------------------
                     drvman        : Timing summary (seconds)
 ------------------------------------------------------------------------------
     job step          cpu (% of tot)      sys (% of tot)     wall (% of tot)
 ------------------------------------------------------------------------------
 ------------------------------------------------------------------------------
   Grand Totals     0.3600E+00          0.2000E-05          0.3666E+00
 ------------------------------------------------------------------------------
drvman_main.C: 77: out of DrvMan  Time for this dynamics step: 1.4 s (CPU) 1.4 s (wall)

=============== TIME STEPS COMPLETED ==================

Step-to-Step energy fluctuations, |E(n) - E(n-1)|
Mean: 9.869e-08   Max: 6.192e-05   RMS: 2.348e-05
Overall energy fluctuations, |E(n) - E(0)|
Mean: 7.580e-05   Max: 1.768e-04   RMS: 3.840e-05   RMS(dE)/RMS(dV): 1.422e-02
Kinetic energy fluctuations, |T(n) - V(0)|
Mean: -4.693e-03   Max: 1.106e-02   RMS: 2.670e-03
Potential energy fluctuations, |V(n) - V(0)|
Mean: 4.768e-03   Max: 1.124e-02   RMS: 2.700e-03


 JobOver = TRUE
Archival summary:
1\1\qciep03\JobtypUnspecified\HF\STO-3G\46\jcartus\MonJun1812:54:142018MonJun1812:54:142018\0\\#,JobtypUnspecified,HF,STO-3G,\\0,1\C\H,1,1.07785\C,1,1.35093,2,116.829\H,3,1.06821,1,126.12,2,8.29661,0\H,3,1.08543,1,120.024,2,-179.675,0\C,1,1.50821,2,112.225,3,-174.383,0\H,6,1.07917,1,114.757,2,32.4453,0\C,6,1.35033,1,124.117,2,-148.156,0\H,8,1.05235,6,123.499,1,178.743,0\H,8,1.08386,6,120.124,1,-0.148864,0\\HF=-153.007533\\@

 Total job time:  758.39s(wall), 736.30s(cpu) 
 Mon Jun 18 12:54:14 2018

        *************************************************************
        *                                                           *
        *  Thank you very much for using Q-Chem.  Have a nice day.  *
        *                                                           *
        *************************************************************


*** MISSION COMPLETED -- STARFLEET OUT ***

0 sent ACK to 0 
now end server 0 ... 
