Process 0 of 1 is on qciep03 - thread support 0
initial socket setup ...start
initial socket setup ...done 
now start server 0 ... 
qciep03.tugraz.at 127.0.1
Q-Chem Developer Version! Running on 127.0.1.*
                  Welcome to Q-Chem
     A Quantum Leap Into The Future Of Chemistry


 Q-Chem 5.0, Q-Chem, Inc., Pleasanton, CA (2017)

 Yihan Shao,  Zhengting Gan,  E. Epifanovsky,  A. T. B. Gilbert,  M. Wormit,  
 J. Kussmann,  A. W. Lange,  A. Behn,  Jia Deng,  Xintian Feng,  D. Ghosh,  
 M. Goldey,  P. R. Horn,  L. D. Jacobson,  I. Kaliman,  T. Kus,  A. Landau,  
 Jie Liu,  E. I. Proynov,  R. M. Richard,  R. P. Steele,  E. J. Sundstrom,  
 H. L. Woodcock III,  P. M. Zimmerman,  D. Zuev,  B. Albrecht,  E. Alguire,  
 S. A. Baeppler,  D. Barton,  Z. Benda,  Y. A. Bernard,  E. J. Berquist,  
 K. B. Bravaya,  H. Burton,  D. Casanova,  Chun-Min Chang,  Yunqing Chen,  
 A. Chien,  K. D. Closser,  M. P. Coons,  S. Dasgupta,  A. L. Dempwolff,  
 M. Diedenhofen,  Hainam Do,  R. G. Edgar,  Po-Tung Fang,  S. Fatehi,  
 Qingguo Feng,  J. Fosso-Tande,  Qinghui Ge,  A. Ghysels,  G. Gidofalvi,  
 J. Gomes,  J. Gonthier,  A. Gunina,  M. W. D. Hanson-Heine,  
 P. H. P. Harbach,  A. W. Hauser,  J. E. Herr,  E. G. Hohenstein,  
 Z. C. Holden,  Kerwin Hui,  T.-C. Jagau,  Hyunjun Ji,  B. Kaduk,  
 K. Khistyaev,  Jaehoon Kim,  P. Klunzinger,  K. Koh,  D. Kosenkov,  
 L. Koulias,  T. Kowalczyk,  C. M. Krauter,  A. Kunitsa,  Ka Un Lao,  
 A. Laurent,  K. V. Lawler,  Joonho Lee,  D. Lefrancois,  S. Lehtola,  
 D. S. Levine,  Yi-Pei Li,  You-Sheng Lin,  Fenglai Liu,  E. Livshits,  
 A. Luenser,  P. Manohar,  E. Mansoor,  S. F. Manzer,  Shan-Ping Mao,  
 Yuezhi Mao,  N. Mardirossian,  A. V. Marenich,  T. Markovich,  
 L. A. Martinez-Martinez,  S. A. Maurer,  N. J. Mayhall,  S. C. McKenzie,  
 J.-M. Mewes,  A. F. Morrison,  J. W. Mullinax,  K. Nanda,  
 T. S. Nguyen-Beck,  R. Olivares-Amaya,  J. A. Parkhill,  T. M. Perrine,  
 F. Plasser,  S. Prager,  A. Prociuk,  E. Ramos,  D. R. Rehn,  F. Rob,  
 M. Schneider,  N. Sergueev,  S. M. Sharada,  S. Sharma,  D. W. Small,  
 T. Stauch,  T. Stein,  Yu-Chuan Su,  A. J. W. Thom,  A. Tkatchenko,  
 T. Tsuchimochi,  L. Vogt,  O. Vydrov,  M. A. Watson,  J. Wenzel,  
 M. de Wergifosse,  T. A. Wesolowski,  A. White,  J. Witte,  A. Yamada,  
 Jun Yang,  K. Yao,  S. Yeganeh,  S. R. Yost,  Zhi-Qiang You,  A. Zech,  
 Igor Ying Zhang,  Xing Zhang,  Yan Zhao,  Ying Zhu,  B. R. Brooks,  
 G. K. L. Chan,  C. J. Cramer,  M. S. Gordon,  W. J. Hehre,  A. Klamt,  
 M. W. Schmidt,  C. D. Sherrill,  D. G. Truhlar,  A. Aspuru-Guzik,  R. Baer,  
 A. T. Bell,  N. A. Besley,  Jeng-Da Chai,  R. A. DiStasio Jr.,  A. Dreuw,  
 B. D. Dunietz,  T. R. Furlani,  Chao-Ping Hsu,  Yousung Jung,  Jing Kong,  
 D. S. Lambrecht,  WanZhen Liang,  C. Ochsenfeld,  V. A. Rassolov,  
 L. V. Slipchenko,  J. E. Subotnik,  T. Van Voorhis,  J. M. Herbert,  
 A. I. Krylov,  P. M. W. Gill,  M. Head-Gordon

 Contributors to earlier versions of Q-Chem not listed above: 
 R. D. Adamson,  B. Austin,  J. Baker,  G. J. O. Beran,  K. Brandhorst,  
 S. T. Brown,  E. F. C. Byrd,  A. K. Chakraborty,  C.-L. Cheng,  
 Siu Hung Chien,  D. M. Chipman,  D. L. Crittenden,  H. Dachsel,  
 R. J. Doerksen,  A. D. Dutoi,  L. Fusti-Molnar,  W. A. Goddard III,  
 A. Golubeva-Zadorozhnaya,  S. R. Gwaltney,  G. Hawkins,  A. Heyden,  
 S. Hirata,  G. Kedziora,  F. J. Keil,  C. Kelley,  Jihan Kim,  R. A. King,  
 R. Z. Khaliullin,  P. P. Korambath,  W. Kurlancheek,  A. M. Lee,  M. S. Lee,  
 S. V. Levchenko,  Ching Yeh Lin,  D. Liotard,  R. C. Lochan,  I. Lotan,  
 P. E. Maslen,  N. Nair,  D. P. O'Neill,  D. Neuhauser,  E. Neuscamman,  
 C. M. Oana,  R. Olson,  B. Peters,  R. Peverati,  P. A. Pieniazek,  
 Y. M. Rhee,  J. Ritchie,  M. A. Rohrdanz,  E. Rosta,  N. J. Russ,  
 H. F. Schaefer III,  N. E. Schultz,  N. Shenvi,  A. C. Simmonett,  A. Sodt,  
 D. Stuck,  K. S. Thanthiriwatte,  V. Vanovschi,  Tao Wang,  A. Warshel,  
 C. F. Williams,  Q. Wu,  X. Xu,  W. Zhang

 Please cite Q-Chem as follows:
 Y. Shao et al., Mol. Phys. 113, 184-215 (2015)
 DOI: 10.1080/00268976.2014.952696

 Q-Chem 5.0.2 for Intel X86 EM64T Linux

 Parts of Q-Chem use Armadillo 5.200.1 (Boston Tea Smuggler).
 http://arma.sourceforge.net/

 Q-Chem begins on Thu Feb  1 12:10:30 2018  


Host: 0

     Scratch files written to /home/jcartus/scratch/24_benI-Nm3.dir//
 Using version located at /usr/local/qchem/bin/qchem

 Parallel job on  1  processors

Total Memory Limit in MB = 2000
Mega-Array Size in MB = 192

Checking the input file for inconsistencies... 	...done.
Finally everything over in PARseQInput

--------------------------------------------------------------
User input:
--------------------------------------------------------------
$rem
SCF_PRINT                     1
BASIS                         6-311++g**
SCF_SAVE_MATRICES             1
SCF_CONVERGENCE               5
SCF_FINAL_PRINT               1
METHOD                        hf
JOBTYPE                       sp
$end

$molecule
0 1
C    1.037288    0.000539    -0.582102
C    -0.176487    -0.000271    0.102715
C    -0.183174    -0.000518    1.498133
C    1.01988    4e-05    2.205172
C    2.228616    0.000848    1.511505
C    2.241753    0.001096    0.118273
I    -2.004073    -0.001696    2.534377
H    1.013157    -0.000135    3.286244
H    3.159115    0.001279    2.063225
H    3.181398    0.001715    -0.416415
H    1.038283    0.000729    -1.663869
H    -1.109304    -0.000688    -0.443732
N    -4.582592278    -0.001974697    4.004623405
C    -5.432248278    1.033095303    3.443517405
C    -5.202064278    -1.306090697    3.850638405
C    -4.310611278    0.268567303    5.404935405
H    -5.229215278    0.283653303    6.011064405
H    -3.647037278    -0.497334697    5.803030405
H    -3.817378278    1.234370303    5.501577405
H    -6.408881278    1.087511303    3.948188405
H    -4.940827278    2.000098303    3.537088405
H    -5.600716278    0.834533303    2.386353405
H    -6.166829278    -1.372211697    4.376310405
H    -5.370060278    -1.508608697    2.794164405
H    -4.539891278    -2.074436697    4.246253405
$end


--------------------------------------------------------------
 ----------------------------------------------------------------
             Standard Nuclear Orientation (Angstroms)
    I     Atom           X                Y                Z
 ----------------------------------------------------------------
    1      C       3.9419013274     1.2036668342     0.0003587334
    2      C       2.5482758455     1.2093796114     0.0000260207
    3      C       1.8517971264     0.0001842021    -0.0001402462
    4      C       2.5472016957    -1.2096322485     0.0000224582
    5      C       3.9408290402    -1.2051610176     0.0003544961
    6      C       4.6418303166    -0.0010575207     0.0005195536
    7      I      -0.2433103287     0.0010340738    -0.0006017237
    8      H       2.0062786322    -2.1456686396    -0.0000894379
    9      H       4.4762811791    -2.1451155507     0.0004800286
   10      H       5.7229519902    -0.0015383870     0.0007688067
   11      H       4.4781912216     2.1431422203     0.0004876614
   12      H       2.0081996632     2.1458996370    -0.0000843778
   13      N      -3.2115394416    -0.0002416810     0.0001343850
   14      C      -3.6717458418     0.9077201231     1.0354800268
   15      C      -3.6740407809     0.4403389288    -1.3037661932
   16      C      -3.6682079730    -1.3516527616     0.2706566193
   17      H      -4.7664013852    -1.4236647152     0.2861087671
   18      H      -3.2889167042    -2.0259041668    -0.4954629092
   19      H      -3.2871316086    -1.6798803677     1.2362866449
   20      H      -4.7701312258     0.9525835359     1.0902774588
   21      H      -3.2907235435     0.5830576683     2.0023105351
   22      H      -3.2949508791     1.9097198131     0.8369196200
   23      H      -4.7725495879     0.4610957487    -1.3695088654
   24      H      -3.2971785596     1.4415059612    -1.5062827316
   25      H      -3.2947402165    -0.2310638082    -2.0723293542
 ----------------------------------------------------------------
 Molecular Point Group                 C1    NOp =  1
 Largest Abelian Subgroup              C1    NOp =  1
 Nuclear Repulsion Energy =  1041.6505622260 hartrees
 There are       64 alpha and       64 beta electrons
 Requested basis set is 6-311++G(d,p)
 There are 154 shells and 380 basis functions

 Total QAlloc Memory Limit   2000 MB
 Mega-Array Size       188 MB
 MEM_STATIC part       192 MB

finished with qalloc call
 Job number = 2, Threshold = 1.00E-08
Integral type ranges set in mkLRange.C for JobNum: 2  <1-21|1-21>
Symmetry turned off temporarily
 Using the largest function pair in Schwarz integrals
Total number of integrals generated =          709701
Symmetry turned back on
 A cutoff of  1.0D-08 yielded   8054 shell pairs
 There are     48544 function pairs (     52131 Cartesian)
 Job number = 11, Threshold = 1.00E-08
Integral type ranges set in mkLRange.C for JobNum: 11  <1-21|22-22>
Total number of integrals generated =         1294325
 Smallest overlap matrix eigenvalue = 1.11E-06

 Q-Chem warning in module /usr/local/qchem/stvman/mkSTV.C, line 295:

 Overlap eigenvalue is smaller than square root of threshold

 Multipole matrices computed through 2nd order

 Scale SEOQF with 1.000000e-02/1.000000e-01/1.000000e-01

 Standard Electronic Orientation quadrupole field applied
 Nucleus-field energy     =     0.0000000060 hartrees
 ENuRep (before)= 1041.6505622260
 ENucField = 0.0000000060
 ENuRep (after) = 1041.6505622320
 Guess from superposition of atomic densities
 Warning:  Energy on first SCF cycle will be non-variational
 SAD guess density has 128.000000 electrons

 ==================================================
    GEN_SCFMAN: A general SCF calculation manager  
                                                   
    Authors:                                       
        -- Eric Jon Sundstrom 2008-2014            
        -- Paul Horn 2010-2015                     
        -- Yuezhi Mao 2012-                        
        -- Dmitri Zuev 2014                        
        -- Alec White 2015-                        
        -- David Stuck 2015                        
        -- Shaama M.S. 2015                        
        -- Shane Yost 2015-                         
        -- Joonho Lee 2016-                        
        -- David Small 2016-                       
        -- Daniel Levine 2016-                     
        -- Susi Lehtola 2017-                      
        -- Hugh Burton 2017-                       
 ==================================================
 Hartree-Fock
Finding J and K together
 Job number = 22, Threshold = 1.00E-08
Integral type ranges set in mkLRange.C for JobNum: 22  <1-21|1-21>
 MakeJK  time:  CPU      33.32 s  wall      34.44 s
 HF Exchange:              -233.55234488206284
 One-Electron:             -12120.10746838916748
 Total Coulomb:            3987.68514757362800
 Nuclear repulsion:        1041.65056223203123
 A restricted SCF calculation will be
 performed using DIIS
 SCF converges when DIIS error is below 1.0e-05
 ---------------------------------------
  Cycle       Energy         DIIS error
 ---------------------------------------
Finding J and K together
 Job number = 22, Threshold = 1.00E-08
Integral type ranges set in mkLRange.C for JobNum: 22  <1-21|1-21>
 MakeJK  time:  CPU     152.86 s  wall     154.33 s
 HF Exchange:              -231.88900186919213
 One-Electron:             -12126.34644354303236
 Total Coulomb:            3996.41194553817922
 Nuclear repulsion:        1041.65056223203123
    1   -7324.3241034656      3.22e-02  
Finding J and K together
 Job number = 22, Threshold = 1.00E-08
Integral type ranges set in mkLRange.C for JobNum: 22  <1-21|1-21>
 MakeJK  time:  CPU     146.37 s  wall     147.77 s
 HF Exchange:              -232.16885700867377
 One-Electron:             -12128.25255047874271
 Total Coulomb:            3998.48698957896249
 Nuclear repulsion:        1041.65056223203123
    2   -7320.1729376420      2.15e-03  
Finding J and K together
 Job number = 22, Threshold = 1.00E-08
Integral type ranges set in mkLRange.C for JobNum: 22  <1-21|1-21>
 MakeJK  time:  CPU     150.88 s  wall     154.24 s
 HF Exchange:              -232.18392544498448
 One-Electron:             -12127.20790774914349
 Total Coulomb:            3997.44702964549288
 Nuclear repulsion:        1041.65056223203123
    3   -7320.2838556764      7.87e-04  
Finding J and K together
 Job number = 22, Threshold = 1.00E-08
Integral type ranges set in mkLRange.C for JobNum: 22  <1-21|1-21>
 MakeJK  time:  CPU     150.10 s  wall     163.50 s
 HF Exchange:              -232.20342271788226
 One-Electron:             -12127.61386171085360
 Total Coulomb:            3997.86813687573522
 Nuclear repulsion:        1041.65056223203123
    4   -7320.2942413166      4.50e-04  
Finding J and K together
 Job number = 22, Threshold = 1.00E-08
Integral type ranges set in mkLRange.C for JobNum: 22  <1-21|1-21>
 MakeJK  time:  CPU     146.76 s  wall     154.45 s
 HF Exchange:              -232.21033718398289
 One-Electron:             -12127.64641240383389
 Total Coulomb:            3997.90742236444203
 Nuclear repulsion:        1041.65056223203123
    5   -7320.2985853210      8.92e-05  
Finding J and K together
 Job number = 22, Threshold = 1.00E-08
Integral type ranges set in mkLRange.C for JobNum: 22  <1-21|1-21>
 MakeJK  time:  CPU     108.87 s  wall     109.11 s
 HF Exchange:              -232.20977341642870
 One-Electron:             -12127.59901091620850
 Total Coulomb:            3997.85942972684325
 Nuclear repulsion:        1041.65056223203123
    6   -7320.2987649913      2.47e-05  
    7   -7320.2987923738      8.58e-06  Convergence criterion met
 ---------------------------------------
 SCF time:   CPU 898.41s  wall 927.00s 
 Total energy in the final basis set =    -7320.2987923738
 HF Exchange:              -232.20977341642870
 One-Electron:             -12127.59901091620850
 Total Coulomb:            3997.85942972684325
 Nuclear repulsion:        1041.65056223203123
Wall  1 = 928
Clock 1 = 898.94476318359375
 ==================================================
                  Done GEN_SCFMAN                  
 ==================================================

Symmetry turned off temporarily

 --------------------------------------------------------------

                    Orbital Energies (a.u.)
 --------------------------------------------------------------

 Alpha MOs
 -- Occupied --
*******-180.846-169.652-169.651-169.651 -37.900 -33.088 -33.083
-33.083 -24.272 -24.270 -24.270 -24.266 -24.266 -15.556 -11.273
-11.245 -11.245 -11.245 -11.243 -11.243 -11.242 -11.242 -11.240
 -7.217  -5.450  -5.439  -5.439  -2.374  -2.368  -2.368  -2.356
 -2.356  -1.239  -1.160  -1.027  -1.023  -0.957  -0.957  -0.861
 -0.834  -0.814  -0.785  -0.698  -0.655  -0.637  -0.637  -0.632
 -0.631  -0.595  -0.553  -0.551  -0.551  -0.523  -0.515  -0.507
 -0.507  -0.503  -0.456  -0.392  -0.360  -0.358  -0.342  -0.313
 -- Virtual --
  0.039   0.045   0.049   0.059   0.059   0.059   0.074   0.076
  0.084   0.086   0.094   0.096   0.107   0.107   0.108   0.118
  0.132   0.142   0.144   0.151   0.152   0.166   0.167   0.168
  0.177   0.180   0.182   0.185   0.186   0.190   0.194   0.195
  0.208   0.209   0.210   0.213   0.215   0.219   0.220   0.225
  0.226   0.226   0.234   0.234   0.243   0.248   0.254   0.281
  0.283   0.288   0.292   0.296   0.308   0.316   0.331   0.332
  0.338   0.344   0.347   0.353   0.357   0.364   0.375   0.383
  0.407   0.413   0.419   0.427   0.429   0.430   0.445   0.453
  0.465   0.467   0.485   0.490   0.500   0.500   0.508   0.543
  0.547   0.558   0.596   0.602   0.619   0.629   0.636   0.676
  0.685   0.695   0.711   0.715   0.719   0.727   0.729   0.732
  0.735   0.741   0.748   0.756   0.763   0.778   0.779   0.787
  0.792   0.816   0.821   0.846   0.857   0.863   0.873   0.874
  0.881   0.896   0.910   0.917   0.921   0.943   0.955   0.970
  0.975   0.987   1.002   1.010   1.013   1.030   1.051   1.057
  1.076   1.084   1.086   1.091   1.102   1.127   1.136   1.167
  1.177   1.205   1.214   1.215   1.223   1.243   1.257   1.277
  1.280   1.287   1.320   1.352   1.386   1.422   1.453   1.477
  1.528   1.589   1.590   1.620   1.682   1.717   1.724   1.726
  1.731   1.763   1.786   1.791   1.791   1.795   1.796   1.818
  1.831   1.836   1.839   1.841   1.850   1.890   1.900   1.907
  1.908   1.916   1.925   1.947   2.002   2.010   2.011   2.014
  2.015   2.031   2.053   2.083   2.112   2.127   2.136   2.137
  2.142   2.226   2.227   2.232   2.244   2.264   2.283   2.286
  2.293   2.325   2.340   2.351   2.375   2.377   2.377   2.380
  2.464   2.465   2.494   2.518   2.597   2.642   2.655   2.745
  2.765   2.766   2.784   2.807   2.809   2.817   2.828   2.860
  2.869   2.870   2.877   2.882   2.938   2.943   2.962   2.978
  2.991   2.999   3.001   3.008   3.017   3.034   3.049   3.052
  3.068   3.103   3.112   3.115   3.117   3.145   3.185   3.188
  3.194   3.233   3.234   3.289   3.291   3.324   3.357   3.443
  3.446   3.483   3.535   3.570   3.770   3.794   3.908   3.918
  3.953   3.958   4.034   4.152   4.175   4.176   4.179   4.189
  4.232   4.240   4.241   4.406   4.464   4.529   4.549   4.570
  4.577   4.642   4.712   4.735   5.004   5.056   5.273   5.376
  5.376   6.655   6.767   6.912  24.715  25.093  25.113  25.129
 25.131  25.133  25.233  25.258  25.357  29.122  29.628  29.713
 29.812  29.913  29.930  29.961  30.007  30.115  36.952 130.672
130.739 130.823 154.4881912.412
 --------------------------------------------------------------

          Ground-State Mulliken Net Atomic Charges

     Atom                 Charge (a.u.)
  ----------------------------------------
      1 C                    -0.162264
      2 C                    -0.515332
      3 C                     0.480813
      4 C                    -0.455632
      5 C                    -0.159198
      6 C                    -0.396605
      7 I                     0.229041
      8 H                     0.191176
      9 H                     0.203626
     10 H                     0.193916
     11 H                     0.204018
     12 H                     0.192588
     13 N                    -0.102347
     14 C                    -0.352234
     15 C                    -0.347565
     16 C                    -0.363505
     17 H                     0.123239
     18 H                     0.133489
     19 H                     0.132511
     20 H                     0.122369
     21 H                     0.131242
     22 H                     0.133005
     23 H                     0.121588
     24 H                     0.131589
     25 H                     0.130472
  ----------------------------------------
  Sum of atomic charges =     0.000000

 -----------------------------------------------------------------
                    Cartesian Multipole Moments
 -----------------------------------------------------------------
    Charge (ESU x 10^10)
                 0.0000
    Dipole Moment (Debye)
         X      -0.5994      Y      -0.0048      Z       0.0013
       Tot       0.5994
    Quadrupole Moments (Debye-Ang)
        XX     -76.2091     XY       0.0040     YY     -85.9661
        XZ      -0.0014     YZ       0.0006     ZZ     -95.7992
    Octopole Moments (Debye-Ang^2)
       XXX      -3.2987    XXY      -0.0041    XYY       3.6071
       YYY       0.7125    XXZ       0.0210    XYZ      -0.0003
       YYZ      -0.4661    XZZ     -28.5715    YZZ      -0.6625
       ZZZ       0.4182
    Hexadecapole Moments (Debye-Ang^3)
      XXXX   -4448.0507   XXXY       0.0666   XXYY    -828.9678
      XYYY      -1.4921   YYYY    -495.6957   XXXZ       0.0024
      XXYZ      -0.0009   XYYZ       0.9694   YYYZ      -0.0025
      XXZZ    -908.5194   XYZZ       1.4014   YYZZ    -142.0051
      XZZZ      -0.9330   YZZZ       0.0108   ZZZZ    -280.5713
 -----------------------------------------------------------------
 Mayer SCF Bond Order, atomic valence on the diagonal:

            1           2           3           4           5           6
    1   4.2641326   1.6369217  -0.2263875  -0.0786620  -0.0883119   1.8693099
    2   1.6369217   4.6441131   1.6674468   0.3265827  -0.0894088   0.0164385
    3  -0.2263875   1.6674468   3.2532454   1.6920647  -0.2086533   0.1034112
    4  -0.0786620   0.3265827   1.6920647   4.5816794   1.6244702   0.0087807
    5  -0.0883119  -0.0894088  -0.2086533   1.6244702   4.2330106   1.8633521
    6   1.8693099   0.0164385   0.1034112   0.0087807   1.8633521   4.7346214
    7   0.1187597   0.3247852  -0.0055773   0.2639319   0.0969550   0.0043696
    8   0.0067041  -0.0092270   0.0952478   0.7793327   0.0947860  -0.0240451
    9  -0.0146012  -0.0015139  -0.0153255   0.0332968   0.8234503   0.0769291
   10   0.1162482  -0.0444532   0.0218499  -0.0444694   0.1193529   0.7563339
   11   0.8258333   0.0299612  -0.0190134  -0.0026676  -0.0126999   0.0804576
   12   0.0958283   0.7892573   0.0855675  -0.0127135   0.0062804  -0.0228993
   13   0.0077041  -0.0103741   0.0557663  -0.0068791   0.0092030  -0.0025066
   14   0.0009292  -0.0045305   0.0076188   0.0005546   0.0014382   0.0001698
   15   0.0013792  -0.0022211   0.0063544  -0.0016755   0.0015965   0.0004040
   16   0.0005727   0.0043928   0.0129340  -0.0095603   0.0001736  -0.0004110
   17   0.0002650   0.0001198   0.0004944   0.0002481  -0.0000017  -0.0001335
   18  -0.0020564   0.0011676  -0.0036437   0.0036337  -0.0025334   0.0009904
   19  -0.0020966   0.0015899  -0.0044011   0.0039165  -0.0027274   0.0010856
   20  -0.0000469  -0.0000564   0.0012545  -0.0002657   0.0001590  -0.0000793
   21  -0.0017395   0.0018357  -0.0037996   0.0019042  -0.0019607   0.0009430
   22  -0.0011817   0.0028912  -0.0037736  -0.0002812  -0.0008060   0.0006591
   23   0.0000007  -0.0002322   0.0014997  -0.0004434   0.0001551   0.0000579
   24  -0.0004832   0.0026902  -0.0041289  -0.0013241  -0.0001092   0.0004001
   25  -0.0007569   0.0000499  -0.0035609   0.0019042  -0.0011496   0.0006037
            7           8           9          10          11          12
    1   0.1187597   0.0067041  -0.0146012   0.1162482   0.8258333   0.0958283
    2   0.3247852  -0.0092270  -0.0015139  -0.0444532   0.0299612   0.7892573
    3  -0.0055773   0.0952478  -0.0153255   0.0218499  -0.0190134   0.0855675
    4   0.2639319   0.7793327   0.0332968  -0.0444694  -0.0026676  -0.0127135
    5   0.0969550   0.0947860   0.8234503   0.1193529  -0.0126999   0.0062804
    6   0.0043696  -0.0240451   0.0769291   0.7563339   0.0804576  -0.0228993
    7   0.8361929   0.0065615   0.0021445  -0.0002028   0.0021508   0.0046309
    8   0.0065615   0.9595314   0.0083217   0.0006046  -0.0000335   0.0017550
    9   0.0021445   0.0083217   0.9237683   0.0100925   0.0007066  -0.0000260
   10  -0.0002028   0.0006046   0.0100925   0.9459185   0.0100408   0.0006012
   11   0.0021508  -0.0000335   0.0007066   0.0100408   0.9231989   0.0082009
   12   0.0046309   0.0017550  -0.0000260   0.0006012   0.0082009   0.9560164
   13  -0.0372155  -0.0011111   0.0002783  -0.0000446   0.0002257  -0.0010923
   14   0.0121849   0.0001035   0.0000140  -0.0000408   0.0001044  -0.0001378
   15   0.0047619   0.0000116   0.0000611  -0.0000620   0.0001087  -0.0000396
   16   0.0165149  -0.0002630   0.0000898  -0.0000008  -0.0000258   0.0003354
   17   0.0017531  -0.0000412   0.0000330  -0.0000060   0.0000216   0.0000988
   18  -0.0021687   0.0000399  -0.0000275   0.0000156  -0.0000373   0.0002086
   19   0.0038145   0.0002100  -0.0000367   0.0000134  -0.0000348   0.0001942
   20   0.0015584   0.0000827   0.0000092  -0.0000019   0.0000095  -0.0000048
   21   0.0075341   0.0001716  -0.0000323   0.0000099  -0.0000370   0.0001556
   22  -0.0035018   0.0000996  -0.0000351   0.0000180  -0.0000198  -0.0001608
   23   0.0013205   0.0000483  -0.0000038   0.0000001  -0.0000042   0.0000107
   24   0.0033233   0.0000490  -0.0000303   0.0000114  -0.0000167  -0.0000914
   25   0.0078040   0.0001229  -0.0000262   0.0000074  -0.0000322   0.0000570
           13          14          15          16          17          18
    1   0.0077041   0.0009292   0.0013792   0.0005727   0.0002650  -0.0020564
    2  -0.0103741  -0.0045305  -0.0022211   0.0043928   0.0001198   0.0011676
    3   0.0557663   0.0076188   0.0063544   0.0129340   0.0004944  -0.0036437
    4  -0.0068791   0.0005546  -0.0016755  -0.0095603   0.0002481   0.0036337
    5   0.0092030   0.0014382   0.0015965   0.0001736  -0.0000017  -0.0025334
    6  -0.0025066   0.0001698   0.0004040  -0.0004110  -0.0001335   0.0009904
    7  -0.0372155   0.0121849   0.0047619   0.0165149   0.0017531  -0.0021687
    8  -0.0011111   0.0001035   0.0000116  -0.0002630  -0.0000412   0.0000399
    9   0.0002783   0.0000140   0.0000611   0.0000898   0.0000330  -0.0000275
   10  -0.0000446  -0.0000408  -0.0000620  -0.0000008  -0.0000060   0.0000156
   11   0.0002257   0.0001044   0.0001087  -0.0000258   0.0000216  -0.0000373
   12  -0.0010923  -0.0001378  -0.0000396   0.0003354   0.0000988   0.0002086
   13   2.1934706   0.8192457   0.8193854   0.8170944   0.0012502  -0.0471272
   14   0.8192457   3.6362963  -0.0741518  -0.0923956  -0.0115229   0.0016773
   15   0.8193854  -0.0741518   3.6312891  -0.0886071  -0.0104362  -0.0066011
   16   0.8170944  -0.0923956  -0.0886071   3.6301553   0.9813909   1.0087637
   17   0.0012502  -0.0115229  -0.0104362   0.9813909   0.9171590  -0.0300074
   18  -0.0471272   0.0016773  -0.0066011   1.0087637  -0.0300074   0.9165554
   19  -0.0467602  -0.0065188   0.0022157   1.0075136  -0.0289252  -0.0127969
   20   0.0020358   0.9785121  -0.0075901  -0.0117464   0.0026733   0.0002886
   21  -0.0460913   1.0053847   0.0021801  -0.0048946   0.0030732  -0.0000573
   22  -0.0475183   1.0074701  -0.0048082   0.0014368   0.0003067   0.0023318
   23   0.0021523  -0.0077028   0.9776585  -0.0106748   0.0029527   0.0025847
   24  -0.0475872  -0.0038997   1.0059293   0.0013900   0.0000681  -0.0000181
   25  -0.0465632   0.0017897   1.0054357  -0.0038679   0.0034844   0.0019284
           19          20          21          22          23          24
    1  -0.0020966  -0.0000469  -0.0017395  -0.0011817   0.0000007  -0.0004832
    2   0.0015899  -0.0000564   0.0018357   0.0028912  -0.0002322   0.0026902
    3  -0.0044011   0.0012545  -0.0037996  -0.0037736   0.0014997  -0.0041289
    4   0.0039165  -0.0002657   0.0019042  -0.0002812  -0.0004434  -0.0013241
    5  -0.0027274   0.0001590  -0.0019607  -0.0008060   0.0001551  -0.0001092
    6   0.0010856  -0.0000793   0.0009430   0.0006591   0.0000579   0.0004001
    7   0.0038145   0.0015584   0.0075341  -0.0035018   0.0013205   0.0033233
    8   0.0002100   0.0000827   0.0001716   0.0000996   0.0000483   0.0000490
    9  -0.0000367   0.0000092  -0.0000323  -0.0000351  -0.0000038  -0.0000303
   10   0.0000134  -0.0000019   0.0000099   0.0000180   0.0000001   0.0000114
   11  -0.0000348   0.0000095  -0.0000370  -0.0000198  -0.0000042  -0.0000167
   12   0.0001942  -0.0000048   0.0001556  -0.0001608   0.0000107  -0.0000914
   13  -0.0467602   0.0020358  -0.0460913  -0.0475183   0.0021523  -0.0475872
   14  -0.0065188   0.9785121   1.0053847   1.0074701  -0.0077028  -0.0038997
   15   0.0022157  -0.0075901   0.0021801  -0.0048082   0.9776585   1.0059293
   16   1.0075136  -0.0117464  -0.0048946   0.0014368  -0.0106748   0.0013900
   17  -0.0289252   0.0026733   0.0030732   0.0003067   0.0029527   0.0000681
   18  -0.0127969   0.0002886  -0.0000573   0.0023318   0.0025847  -0.0000181
   19   0.9236470   0.0027999   0.0020117  -0.0001456   0.0004495   0.0023546
   20   0.0027999   0.9169628  -0.0290223  -0.0302628   0.0035145   0.0028971
   21   0.0020117  -0.0290223   0.9270683  -0.0132438   0.0003828  -0.0000345
   22  -0.0001456  -0.0302628  -0.0132438   0.9149289   0.0026956   0.0027444
   23   0.0004495   0.0035145   0.0003828   0.0026956   0.9174327  -0.0298085
   24   0.0023546   0.0028971  -0.0000345   0.0027444  -0.0298085   0.9208575
   25  -0.0000787   0.0002449   0.0023947   0.0000143  -0.0291808  -0.0134684
           25
    1  -0.0007569
    2   0.0000499
    3  -0.0035609
    4   0.0019042
    5  -0.0011496
    6   0.0006037
    7   0.0078040
    8   0.0001229
    9  -0.0000262
   10   0.0000074
   11  -0.0000322
   12   0.0000570
   13  -0.0465632
   14   0.0017897
   15   1.0054357
   16  -0.0038679
   17   0.0034844
   18   0.0019284
   19  -0.0000787
   20   0.0002449
   21   0.0023947
   22   0.0000143
   23  -0.0291808
   24  -0.0134684
   25   0.9271563


 JobOver = TRUE
Archival summary:
1\1\qciep03\SP\HF\BasisUnspecified\11914\jcartus\ThuFeb112:26:012018ThuFeb112:26:012018\0\\#,HF,BasisUnspecified,\\0,1\I\C,1,2.09511\C,2,1.39543,1,119.918\H,3,1.08109,2,120.087,1,-0,0\C,3,1.39364,2,119.706,1,179.999,0\H,5,1.08177,3,119.485,2,-180,0\C,5,1.39329,3,120.391,2,0,0\H,7,1.08112,5,120.182,3,180,0\C,7,1.39329,5,119.637,3,-0,0\H,9,1.08177,7,120.125,5,-180,0\C,9,1.39363,7,120.391,5,0,0\H,11,1.08109,9,120.207,7,-179.999,0\N,1,2.96823,2,179.945,3,-150.729,0\C,13,1.45191,1,108.359,2,-17.9535,0\H,14,1.08876,13,109.619,1,59.375,0\H,14,1.08877,13,109.617,1,-59.4792,0\H,14,1.10066,13,112.169,1,179.952,0\C,13,1.45194,1,108.474,2,101.989,0\H,18,1.08874,13,109.623,1,-59.3058,0\H,18,1.08876,13,109.62,1,59.539,0\H,18,1.10067,13,112.166,1,-179.895,0\C,13,1.45196,1,108.553,2,-137.946,0\H,22,1.08873,13,109.624,1,59.3553,0\H,22,1.08875,13,109.622,1,-59.484,0\H,22,1.10067,13,112.165,1,179.942,0\\HF=-7320.29879\\@

 Total job time:  930.65s(wall), 901.38s(cpu) 
 Thu Feb  1 12:26:01 2018

        *************************************************************
        *                                                           *
        *  Thank you very much for using Q-Chem.  Have a nice day.  *
        *                                                           *
        *************************************************************


*** MISSION COMPLETED -- STARFLEET OUT ***

0 sent ACK to 0 
now end server 0 ... 
