Process 0 of 1 is on qciep03 - thread support 0
initial socket setup ...start
initial socket setup ...done 
now start server 0 ... 
qciep03.tugraz.at 127.0.1
Q-Chem Developer Version! Running on 127.0.1.*
                  Welcome to Q-Chem
     A Quantum Leap Into The Future Of Chemistry


 Q-Chem 5.0, Q-Chem, Inc., Pleasanton, CA (2017)

 Yihan Shao,  Zhengting Gan,  E. Epifanovsky,  A. T. B. Gilbert,  M. Wormit,  
 J. Kussmann,  A. W. Lange,  A. Behn,  Jia Deng,  Xintian Feng,  D. Ghosh,  
 M. Goldey,  P. R. Horn,  L. D. Jacobson,  I. Kaliman,  T. Kus,  A. Landau,  
 Jie Liu,  E. I. Proynov,  R. M. Richard,  R. P. Steele,  E. J. Sundstrom,  
 H. L. Woodcock III,  P. M. Zimmerman,  D. Zuev,  B. Albrecht,  E. Alguire,  
 S. A. Baeppler,  D. Barton,  Z. Benda,  Y. A. Bernard,  E. J. Berquist,  
 K. B. Bravaya,  H. Burton,  D. Casanova,  Chun-Min Chang,  Yunqing Chen,  
 A. Chien,  K. D. Closser,  M. P. Coons,  S. Dasgupta,  A. L. Dempwolff,  
 M. Diedenhofen,  Hainam Do,  R. G. Edgar,  Po-Tung Fang,  S. Fatehi,  
 Qingguo Feng,  J. Fosso-Tande,  Qinghui Ge,  A. Ghysels,  G. Gidofalvi,  
 J. Gomes,  J. Gonthier,  A. Gunina,  M. W. D. Hanson-Heine,  
 P. H. P. Harbach,  A. W. Hauser,  J. E. Herr,  E. G. Hohenstein,  
 Z. C. Holden,  Kerwin Hui,  T.-C. Jagau,  Hyunjun Ji,  B. Kaduk,  
 K. Khistyaev,  Jaehoon Kim,  P. Klunzinger,  K. Koh,  D. Kosenkov,  
 L. Koulias,  T. Kowalczyk,  C. M. Krauter,  A. Kunitsa,  Ka Un Lao,  
 A. Laurent,  K. V. Lawler,  Joonho Lee,  D. Lefrancois,  S. Lehtola,  
 D. S. Levine,  Yi-Pei Li,  You-Sheng Lin,  Fenglai Liu,  E. Livshits,  
 A. Luenser,  P. Manohar,  E. Mansoor,  S. F. Manzer,  Shan-Ping Mao,  
 Yuezhi Mao,  N. Mardirossian,  A. V. Marenich,  T. Markovich,  
 L. A. Martinez-Martinez,  S. A. Maurer,  N. J. Mayhall,  S. C. McKenzie,  
 J.-M. Mewes,  A. F. Morrison,  J. W. Mullinax,  K. Nanda,  
 T. S. Nguyen-Beck,  R. Olivares-Amaya,  J. A. Parkhill,  T. M. Perrine,  
 F. Plasser,  S. Prager,  A. Prociuk,  E. Ramos,  D. R. Rehn,  F. Rob,  
 M. Schneider,  N. Sergueev,  S. M. Sharada,  S. Sharma,  D. W. Small,  
 T. Stauch,  T. Stein,  Yu-Chuan Su,  A. J. W. Thom,  A. Tkatchenko,  
 T. Tsuchimochi,  L. Vogt,  O. Vydrov,  M. A. Watson,  J. Wenzel,  
 M. de Wergifosse,  T. A. Wesolowski,  A. White,  J. Witte,  A. Yamada,  
 Jun Yang,  K. Yao,  S. Yeganeh,  S. R. Yost,  Zhi-Qiang You,  A. Zech,  
 Igor Ying Zhang,  Xing Zhang,  Yan Zhao,  Ying Zhu,  B. R. Brooks,  
 G. K. L. Chan,  C. J. Cramer,  M. S. Gordon,  W. J. Hehre,  A. Klamt,  
 M. W. Schmidt,  C. D. Sherrill,  D. G. Truhlar,  A. Aspuru-Guzik,  R. Baer,  
 A. T. Bell,  N. A. Besley,  Jeng-Da Chai,  R. A. DiStasio Jr.,  A. Dreuw,  
 B. D. Dunietz,  T. R. Furlani,  Chao-Ping Hsu,  Yousung Jung,  Jing Kong,  
 D. S. Lambrecht,  WanZhen Liang,  C. Ochsenfeld,  V. A. Rassolov,  
 L. V. Slipchenko,  J. E. Subotnik,  T. Van Voorhis,  J. M. Herbert,  
 A. I. Krylov,  P. M. W. Gill,  M. Head-Gordon

 Contributors to earlier versions of Q-Chem not listed above: 
 R. D. Adamson,  B. Austin,  J. Baker,  G. J. O. Beran,  K. Brandhorst,  
 S. T. Brown,  E. F. C. Byrd,  A. K. Chakraborty,  C.-L. Cheng,  
 Siu Hung Chien,  D. M. Chipman,  D. L. Crittenden,  H. Dachsel,  
 R. J. Doerksen,  A. D. Dutoi,  L. Fusti-Molnar,  W. A. Goddard III,  
 A. Golubeva-Zadorozhnaya,  S. R. Gwaltney,  G. Hawkins,  A. Heyden,  
 S. Hirata,  G. Kedziora,  F. J. Keil,  C. Kelley,  Jihan Kim,  R. A. King,  
 R. Z. Khaliullin,  P. P. Korambath,  W. Kurlancheek,  A. M. Lee,  M. S. Lee,  
 S. V. Levchenko,  Ching Yeh Lin,  D. Liotard,  R. C. Lochan,  I. Lotan,  
 P. E. Maslen,  N. Nair,  D. P. O'Neill,  D. Neuhauser,  E. Neuscamman,  
 C. M. Oana,  R. Olson,  B. Peters,  R. Peverati,  P. A. Pieniazek,  
 Y. M. Rhee,  J. Ritchie,  M. A. Rohrdanz,  E. Rosta,  N. J. Russ,  
 H. F. Schaefer III,  N. E. Schultz,  N. Shenvi,  A. C. Simmonett,  A. Sodt,  
 D. Stuck,  K. S. Thanthiriwatte,  V. Vanovschi,  Tao Wang,  A. Warshel,  
 C. F. Williams,  Q. Wu,  X. Xu,  W. Zhang

 Please cite Q-Chem as follows:
 Y. Shao et al., Mol. Phys. 113, 184-215 (2015)
 DOI: 10.1080/00268976.2014.952696

 Q-Chem 5.0.2 for Intel X86 EM64T Linux

 Parts of Q-Chem use Armadillo 5.200.1 (Boston Tea Smuggler).
 http://arma.sourceforge.net/

 Q-Chem begins on Thu Feb  1 12:12:22 2018  


Host: 0

     Scratch files written to /home/jcartus/scratch/12_benF6-ben.dir//
 Using version located at /usr/local/qchem/bin/qchem

 Parallel job on  1  processors

Total Memory Limit in MB = 2000
Mega-Array Size in MB = 192

Checking the input file for inconsistencies... 	...done.
Finally everything over in PARseQInput

--------------------------------------------------------------
User input:
--------------------------------------------------------------
$rem
SCF_PRINT                     1
BASIS                         6-311++g**
SCF_SAVE_MATRICES             1
SCF_CONVERGENCE               5
SCF_FINAL_PRINT               1
METHOD                        hf
JOBTYPE                       sp
$end

$molecule
0 1
F    -2.268328468    -1.958202889    -0.323025092
F    -2.703690585    0.725550383    -0.25311904
C    0.039970416    -1.620649062    0.000627529
C    -1.246714568    -1.122331457    -0.158188956
C    -1.468960632    0.248281616    -0.123448223
C    -0.404843176    1.120110725    0.068321788
C    0.88286916    0.622303553    0.223239994
C    1.104164281    -0.748842052    0.192245986
F    -0.620157741    2.430732722    0.113060107
F    1.901232288    1.45642417    0.399377483
F    0.250821528    -2.933836485    -0.010169125
F    2.333223855    -1.227390582    0.354782679
H    -1.719265622    -1.313070599    3.23511468
H    -2.117120419    1.131566386    3.250807086
C    0.409478083    -1.12597989    3.47677448
C    -0.887013607    -0.630037228    3.342089837
C    -1.111190459    0.746396788    3.352790675
C    -0.039417816    1.626442678    3.499615551
C    1.256371149    1.130100736    3.634840523
C    1.481108571    -0.245785431    3.623479226
H    -0.21365013    2.693766913    3.507370558
H    2.087582706    1.812593825    3.746420458
H    0.583630925    -2.193775854    3.470689289
H    2.486380394    -0.630785067    3.727095469
$end


--------------------------------------------------------------
 ----------------------------------------------------------------
             Standard Nuclear Orientation (Angstroms)
    I     Atom           X                Y                Z
 ----------------------------------------------------------------
    1      F       2.9137598732    -0.0498785698    -1.4059981543
    2      F       1.9748048407     2.3295429125    -0.4820525333
    3      C       1.4716830822    -1.2150636494     0.0464809684
    4      C       1.9817922575    -0.0254066173    -0.4571122549
    5      C       1.5029802408     1.1897697968     0.0153978112
    6      C       0.5158128983     1.2152063311     0.9921584335
    7      C       0.0081282748     0.0255130872     1.4990124558
    8      C       0.4846103256    -1.1896839535     1.0233724273
    9      F       0.0500780652     2.3783443076     1.4352081043
   10      F      -0.9306352769     0.0500433738     2.4381430847
   11      F       1.9135142673    -2.3791530916    -0.4211908626
   12      F      -0.0102327664    -2.3286020322     1.4966696202
   13      H      -0.4224900073    -0.0525617167    -2.9051491984
   14      H      -1.2390808702     2.1180001919    -2.0353072339
   15      C      -1.6572118257    -1.2222471498    -1.5889994453
   16      C      -1.1608613532    -0.0296335096    -2.1146406662
   17      C      -1.6220422640     1.1924959753    -1.6261203915
   18      C      -2.5802913395     1.2219224387    -0.6133876017
   19      C      -3.0765908841     0.0293983899    -0.0887131186
   20      C      -2.6153607200    -1.1926104892    -0.5762167264
   21      H      -2.9372908011     2.1698663699    -0.2345053644
   22      H      -3.8179300905     0.0523126378     0.6980846121
   23      H      -1.3013128092    -2.1705962168    -1.9691630939
   24      H      -2.9993886057    -2.1176572709    -0.1683644021
 ----------------------------------------------------------------
 Molecular Point Group                 C1    NOp =  1
 Largest Abelian Subgroup              C1    NOp =  1
 Nuclear Repulsion Energy =  1404.7740340849 hartrees
 There are       66 alpha and       66 beta electrons
 Requested basis set is 6-311++G(d,p)
 There are 138 shells and 438 basis functions

 Total QAlloc Memory Limit   2000 MB
 Mega-Array Size       188 MB
 MEM_STATIC part       192 MB

finished with qalloc call
 Job number = 2, Threshold = 1.00E-08
Integral type ranges set in mkLRange.C for JobNum: 2  <1-21|1-21>
Symmetry turned off temporarily
 Using the largest function pair in Schwarz integrals
Total number of integrals generated =         1323204
Symmetry turned back on
 A cutoff of  1.0D-08 yielded   6978 shell pairs
 There are     72344 function pairs (     77586 Cartesian)
 Job number = 11, Threshold = 1.00E-08
Integral type ranges set in mkLRange.C for JobNum: 11  <1-21|22-22>
Total number of integrals generated =         1861704
 Smallest overlap matrix eigenvalue = 5.18E-07

 Q-Chem warning in module /usr/local/qchem/stvman/mkSTV.C, line 295:

 Overlap eigenvalue is smaller than square root of threshold

 Linear dependence detected in AO basis
 Number of orthogonalized atomic orbitals = 436
 Maximum deviation from orthogonality = 5.088E-11
 Multipole matrices computed through 2nd order

 Scale SEOQF with 1.000000e-01/1.000000e-01/1.000000e-01

 Standard Electronic Orientation quadrupole field applied
 Nucleus-field energy     =     0.0000000120 hartrees
 ENuRep (before)= 1404.7740340849
 ENucField = 0.0000000120
 ENuRep (after) = 1404.7740340969
 Guess from superposition of atomic densities
 Warning:  Energy on first SCF cycle will be non-variational
 SAD guess density has 132.000000 electrons

 ==================================================
    GEN_SCFMAN: A general SCF calculation manager  
                                                   
    Authors:                                       
        -- Eric Jon Sundstrom 2008-2014            
        -- Paul Horn 2010-2015                     
        -- Yuezhi Mao 2012-                        
        -- Dmitri Zuev 2014                        
        -- Alec White 2015-                        
        -- David Stuck 2015                        
        -- Shaama M.S. 2015                        
        -- Shane Yost 2015-                         
        -- Joonho Lee 2016-                        
        -- David Small 2016-                       
        -- Daniel Levine 2016-                     
        -- Susi Lehtola 2017-                      
        -- Hugh Burton 2017-                       
 ==================================================
 Hartree-Fock
Finding J and K together
 Job number = 22, Threshold = 1.00E-08
Integral type ranges set in mkLRange.C for JobNum: 22  <1-21|1-21>
 MakeJK  time:  CPU      40.36 s  wall      43.15 s
 HF Exchange:              -126.60060612000487
 One-Electron:             -4245.34635735629399
 Total Coulomb:            1906.20173788700822
 Nuclear repulsion:        1404.77403409685644
 A restricted SCF calculation will be
 performed using DIIS
 SCF converges when DIIS error is below 1.0e-05
 ---------------------------------------
  Cycle       Energy         DIIS error
 ---------------------------------------
Finding J and K together
 Job number = 22, Threshold = 1.00E-08
Integral type ranges set in mkLRange.C for JobNum: 22  <1-21|1-21>
 MakeJK  time:  CPU     257.05 s  wall     266.27 s
 HF Exchange:              -124.89034613531113
 One-Electron:             -4245.44274456052517
 Total Coulomb:            1911.10069767511050
 Nuclear repulsion:        1404.77403409685644
    1   -1060.9711914924      3.31e-02  
Finding J and K together
 Job number = 22, Threshold = 1.00E-08
Integral type ranges set in mkLRange.C for JobNum: 22  <1-21|1-21>
 MakeJK  time:  CPU     255.45 s  wall     272.75 s
 HF Exchange:              -124.53015712344784
 One-Electron:             -4248.87815933773345
 Total Coulomb:            1913.95857052085466
 Nuclear repulsion:        1404.77403409685644
    2   -1054.4583589239      3.44e-03  
Finding J and K together
 Job number = 22, Threshold = 1.00E-08
Integral type ranges set in mkLRange.C for JobNum: 22  <1-21|1-21>
 MakeJK  time:  CPU     221.52 s  wall     224.09 s
 HF Exchange:              -124.99849376971200
 One-Electron:             -4249.29975563567768
 Total Coulomb:            1914.79074190150163
 Nuclear repulsion:        1404.77403409685644
    3   -1054.6757118435      1.91e-03  
Finding J and K together
 Job number = 22, Threshold = 1.00E-08
Integral type ranges set in mkLRange.C for JobNum: 22  <1-21|1-21>
 MakeJK  time:  CPU     177.80 s  wall     177.93 s
 HF Exchange:              -124.89747512424968
 One-Electron:             -4248.82363582116977
 Total Coulomb:            1914.20877439242736
 Nuclear repulsion:        1404.77403409685644
    4   -1054.7334734070      4.95e-04  
Finding J and K together
 Job number = 22, Threshold = 1.00E-08
Integral type ranges set in mkLRange.C for JobNum: 22  <1-21|1-21>
 MakeJK  time:  CPU     152.53 s  wall     152.64 s
 HF Exchange:              -124.91574900965746
 One-Electron:             -4248.92833323453397
 Total Coulomb:            1914.33147888153235
 Nuclear repulsion:        1404.77403409685644
    5   -1054.7383024561      9.74e-05  
Finding J and K together
 Job number = 22, Threshold = 1.00E-08
Integral type ranges set in mkLRange.C for JobNum: 22  <1-21|1-21>
 MakeJK  time:  CPU     123.26 s  wall     123.35 s
 HF Exchange:              -124.91702555065559
 One-Electron:             -4248.95361873250204
 Total Coulomb:            1914.35802657843237
 Nuclear repulsion:        1404.77403409685644
    6   -1054.7385692658      1.87e-05  
    7   -1054.7385836079      8.68e-06  Convergence criterion met
 ---------------------------------------
 SCF time:   CPU 1239.82s  wall 1273.00s 
 Total energy in the final basis set =    -1054.7385836079
 HF Exchange:              -124.91702555065559
 One-Electron:             -4248.95361873250204
 Total Coulomb:            1914.35802657843237
 Nuclear repulsion:        1404.77403409685644
Wall  1 = 1273
Clock 1 = 1240.47424316406250
 ==================================================
                  Done GEN_SCFMAN                  
 ==================================================

Symmetry turned off temporarily

 --------------------------------------------------------------

                    Orbital Energies (a.u.)
 --------------------------------------------------------------

 Alpha MOs
 -- Occupied --
-26.360 -26.360 -26.360 -26.359 -26.359 -26.358 -11.389 -11.389
-11.389 -11.388 -11.387 -11.387 -11.249 -11.248 -11.248 -11.247
-11.247 -11.246  -1.694  -1.687  -1.687  -1.673  -1.673  -1.666
 -1.232  -1.164  -1.088  -1.088  -1.028  -1.028  -0.939  -0.939
 -0.860  -0.837  -0.836  -0.836  -0.828  -0.777  -0.775  -0.775
 -0.775  -0.774  -0.751  -0.750  -0.726  -0.726  -0.722  -0.718
 -0.706  -0.706  -0.696  -0.655  -0.638  -0.638  -0.631  -0.602
 -0.600  -0.600  -0.548  -0.508  -0.506  -0.506  -0.392  -0.388
 -0.348  -0.345
 -- Virtual --
  0.042   0.050   0.050   0.064   0.066   0.067   0.090   0.091
  0.094   0.095   0.096   0.104   0.104   0.119   0.124   0.125
  0.129   0.153   0.155   0.157   0.164   0.167   0.171   0.176
  0.176   0.179   0.183   0.184   0.186   0.194   0.200   0.201
  0.203   0.204   0.215   0.220   0.222   0.226   0.235   0.235
  0.238   0.239   0.245   0.248   0.251   0.263   0.264   0.267
  0.285   0.289   0.297   0.305   0.316   0.317   0.320   0.335
  0.336   0.346   0.349   0.358   0.361   0.373   0.396   0.403
  0.404   0.411   0.425   0.433   0.442   0.443   0.445   0.453
  0.456   0.465   0.467   0.467   0.476   0.478   0.489   0.492
  0.499   0.502   0.505   0.508   0.512   0.514   0.518   0.523
  0.527   0.540   0.541   0.548   0.577   0.577   0.584   0.596
  0.606   0.608   0.630   0.650   0.655   0.658   0.665   0.666
  0.667   0.706   0.725   0.725   0.730   0.744   0.756   0.767
  0.781   0.784   0.803   0.816   0.843   0.877   0.877   0.879
  0.883   0.895   0.917   0.920   0.926   0.940   0.947   0.950
  0.960   0.967   0.976   0.978   0.985   0.987   0.999   1.011
  1.026   1.034   1.047   1.070   1.071   1.092   1.099   1.100
  1.113   1.122   1.122   1.130   1.139   1.144   1.152   1.167
  1.200   1.216   1.232   1.245   1.250   1.264   1.271   1.272
  1.292   1.362   1.363   1.371   1.377   1.386   1.399   1.409
  1.411   1.417   1.478   1.514   1.542   1.601   1.643   1.666
  1.675   1.677   1.692   1.705   1.711   1.716   1.720   1.734
  1.738   1.745   1.746   1.764   1.778   1.783   1.788   1.799
  1.805   1.806   1.810   1.816   1.857   1.874   1.889   1.895
  1.918   1.923   1.932   1.935   1.939   1.951   1.956   2.010
  2.015   2.029   2.044   2.053   2.061   2.066   2.093   2.096
  2.118   2.125   2.129   2.150   2.158   2.211   2.234   2.236
  2.239   2.266   2.296   2.318   2.322   2.348   2.353   2.371
  2.374   2.410   2.428   2.449   2.454   2.464   2.477   2.501
  2.502   2.530   2.570   2.632   2.651   2.682   2.688   2.745
  2.753   2.760   2.768   2.833   2.845   2.848   2.956   2.957
  2.981   2.993   3.046   3.047   3.060   3.067   3.079   3.099
  3.128   3.140   3.198   3.230   3.251   3.257   3.310   3.324
  3.326   3.328   3.348   3.369   3.370   3.454   3.499   3.514
  3.526   3.533   3.547   3.586   3.609   3.619   3.790   3.829
  3.832   3.852   3.953   3.963   3.967   4.075   4.089   4.144
  4.151   4.172   4.182   4.187   4.189   4.192   4.193   4.202
  4.246   4.254   4.260   4.338   4.355   4.392   4.392   4.399
  4.400   4.416   4.423   4.439   4.440   4.486   4.493   4.501
  4.503   4.576   4.577   4.616   4.616   4.672   5.129   5.267
  5.289   5.290   5.322   5.394   5.397   5.481   6.927   6.953
  6.964   6.965   6.980   6.985   7.026   7.050   7.060   7.088
  7.091   7.139   7.184   7.384   7.391   7.472   7.488   7.539
 24.496  24.782  24.960  24.967  25.110  25.112  25.150  25.151
 25.219  25.250  25.252  25.358  68.727  68.766  68.773  68.784
 68.792  68.858
 --------------------------------------------------------------

          Ground-State Mulliken Net Atomic Charges

     Atom                 Charge (a.u.)
  ----------------------------------------
      1 F                    -0.219414
      2 F                    -0.226235
      3 C                     0.214065
      4 C                     0.047402
      5 C                     0.213493
      6 C                     0.244789
      7 C                     0.331258
      8 C                     0.251849
      9 F                    -0.216442
     10 F                    -0.207667
     11 F                    -0.226002
     12 F                    -0.216082
     13 H                     0.215060
     14 H                     0.222420
     15 C                    -0.184126
     16 C                     0.054003
     17 C                    -0.167855
     18 C                    -0.281660
     19 C                    -0.423607
     20 C                    -0.279417
     21 H                     0.212576
     22 H                     0.206981
     23 H                     0.222391
     24 H                     0.212219
  ----------------------------------------
  Sum of atomic charges =     0.000000

 -----------------------------------------------------------------
                    Cartesian Multipole Moments
 -----------------------------------------------------------------
    Charge (ESU x 10^10)
                 0.0000
    Dipole Moment (Debye)
         X      -0.5897      Y      -0.0000      Z      -0.0696
       Tot       0.5938
    Quadrupole Moments (Debye-Ang)
        XX    -102.5924     XY       0.0003     YY    -103.9236
        XZ       1.2634     YZ       0.0004     ZZ    -102.4883
    Octopole Moments (Debye-Ang^2)
       XXX      30.8711    XXY       0.0022    XYY      -5.3824
       YYY      -0.0001    XXZ      36.7530    XYZ       0.0029
       YYZ      -2.3293    XZZ      25.4996    YZZ       0.0007
       ZZZ      15.6540
    Hexadecapole Moments (Debye-Ang^3)
      XXXX   -2025.2971   XXXY      -0.0283   XXYY    -526.4937
      XYYY       0.0001   YYYY   -1237.5515   XXXZ    -117.8727
      XXYZ       0.0008   XYYZ     -12.7750   YYYZ       0.0075
      XXZZ    -545.9217   XYZZ      -0.0033   YYZZ    -372.8294
      XZZZ     -83.0565   YZZZ      -0.0114   ZZZZ   -1034.7030
 -----------------------------------------------------------------
 Mayer SCF Bond Order, atomic valence on the diagonal:

            1           2           3           4           5           6
    1   0.8377124  -0.0048160  -0.3566849   1.8240980  -0.3597475  -0.1127436
    2  -0.0048160   0.8537592  -0.1020804  -0.3718079   1.7826253  -0.2800803
    3  -0.3566849  -0.1020804   3.6678463   1.3321724   0.0463917   0.1088404
    4   1.8240980  -0.3718079   1.3321724   3.8177480   1.3286999   0.0352232
    5  -0.3597475   1.7826253   0.0463917   1.3286999   3.6658887   1.2924741
    6  -0.1127436  -0.2800803   0.1088404   0.0352232   1.2924741   3.6878905
    7  -0.0170097  -0.1257529   0.0920328   0.1380702   0.0906286   1.2850184
    8  -0.1135785  -0.0202477   1.2887137   0.0342484   0.1067579   0.1228563
    9   0.0006860  -0.0107143  -0.0120293  -0.1195611  -0.3333245   1.8861763
   10   0.0025064   0.0003692  -0.1230303  -0.0025022  -0.1238680  -0.3798501
   11  -0.0050419   0.0006990   1.7824439  -0.3708022  -0.1017953  -0.0204525
   12   0.0006790   0.0020749  -0.3320028  -0.1208715  -0.0115141  -0.1276067
   13  -0.0111495  -0.0009891   0.0003444  -0.0109530   0.0007277   0.0026939
   14  -0.0000087  -0.0089089  -0.0000624   0.0017671  -0.0134960  -0.0087484
   15   0.0054943  -0.0030884  -0.0038211   0.0958438   0.0242123   0.0024238
   16  -0.0226748   0.0018292  -0.1476623  -0.0952403  -0.1381783  -0.0535575
   17   0.0057639  -0.0111100   0.0241982   0.0921843  -0.0084948  -0.1512311
   18   0.0002079   0.0009895   0.0141760   0.0241994   0.0883933   0.0149136
   19   0.0015349   0.0039369  -0.0180376  -0.0242638  -0.0166628   0.0696616
   20   0.0002472   0.0009193   0.0878764   0.0252521   0.0127257   0.0101828
   21  -0.0000407  -0.0000949   0.0000316   0.0008733   0.0000973  -0.0085112
   22   0.0000492   0.0000306  -0.0007683  -0.0013281  -0.0007469   0.0011963
   23  -0.0000196  -0.0001153  -0.0133586   0.0015819  -0.0000390  -0.0003735
   24  -0.0000392   0.0000913   0.0001629   0.0008641   0.0000220  -0.0006153
            7           8           9          10          11          12
    1  -0.0170097  -0.1135785   0.0006860   0.0025064  -0.0050419   0.0006790
    2  -0.1257529  -0.0202477  -0.0107143   0.0003692   0.0006990   0.0020749
    3   0.0920328   1.2887137  -0.0120293  -0.1230303   1.7824439  -0.3320028
    4   0.1380702   0.0342484  -0.1195611  -0.0025022  -0.3708022  -0.1208715
    5   0.0906286   0.1067579  -0.3333245  -0.1238680  -0.1017953  -0.0115141
    6   1.2850184   0.1228563   1.8861763  -0.3798501  -0.0204525  -0.1276067
    7   3.7795600   1.2867189  -0.3830674   1.9335145  -0.1262677  -0.3881804
    8   1.2867189   3.6829278  -0.1282811  -0.3836728  -0.2790721   1.8905075
    9  -0.3830674  -0.1282811   0.8799593  -0.0063619   0.0020616   0.0003175
   10   1.9335145  -0.3836728  -0.0063619   0.8840695   0.0003649  -0.0059670
   11  -0.1262677  -0.2790721   0.0020616   0.0003649   0.8548658  -0.0109445
   12  -0.3881804   1.8905075   0.0003175  -0.0059670  -0.0109445   0.8801008
   13  -0.0005289   0.0028515  -0.0009993   0.0000632  -0.0011068  -0.0010573
   14   0.0038627  -0.0004196   0.0004929  -0.0010336  -0.0001190   0.0001896
   15  -0.0650638  -0.1455343   0.0058731  -0.0036766  -0.0098369  -0.0111200
   16   0.1320927  -0.0610179  -0.0204157  -0.0099032   0.0011036  -0.0203827
   17  -0.0711452   0.0023518  -0.0116348  -0.0043283  -0.0035079   0.0058216
   18  -0.0966642   0.0136631   0.0241734   0.0041128   0.0008455   0.0082194
   19   0.1830968   0.0652802  -0.0163989  -0.0146854   0.0042482  -0.0167744
   20  -0.0939401   0.0171764   0.0082200   0.0039470   0.0007105   0.0234114
   21  -0.0022607  -0.0005165  -0.0048946   0.0039199   0.0000899   0.0000270
   22   0.0028132   0.0010912  -0.0005867  -0.0086693   0.0000407  -0.0005249
   23   0.0037099  -0.0089407   0.0001830  -0.0009941  -0.0086720   0.0007051
   24  -0.0021176  -0.0080079   0.0000449   0.0038143  -0.0001231  -0.0049061
           13          14          15          16          17          18
    1  -0.0111495  -0.0000087   0.0054943  -0.0226748   0.0057639   0.0002079
    2  -0.0009891  -0.0089089  -0.0030884   0.0018292  -0.0111100   0.0009895
    3   0.0003444  -0.0000624  -0.0038211  -0.1476623   0.0241982   0.0141760
    4  -0.0109530   0.0017671   0.0958438  -0.0952403   0.0921843   0.0241994
    5   0.0007277  -0.0134960   0.0242123  -0.1381783  -0.0084948   0.0883933
    6   0.0026939  -0.0087484   0.0024238  -0.0535575  -0.1512311   0.0149136
    7  -0.0005289   0.0038627  -0.0650638   0.1320927  -0.0711452  -0.0966642
    8   0.0028515  -0.0004196  -0.1455343  -0.0610179   0.0023518   0.0136631
    9  -0.0009993   0.0004929   0.0058731  -0.0204157  -0.0116348   0.0241734
   10   0.0000632  -0.0010336  -0.0036766  -0.0099032  -0.0043283   0.0041128
   11  -0.0011068  -0.0001190  -0.0098369   0.0011036  -0.0035079   0.0008455
   12  -0.0010573   0.0001896  -0.0111200  -0.0203827   0.0058216   0.0082194
   13   0.9089780   0.0022925  -0.0198304   0.9594717  -0.0207040   0.0046899
   14   0.0022925   0.8983723   0.0095431  -0.0196520   0.9386323  -0.0061208
   15  -0.0198304   0.0095431   4.0601382   1.5176843   0.1651027  -0.0775485
   16   0.9594717  -0.0196520   1.5176843   3.7840893   1.5176602   0.1802116
   17  -0.0207040   0.9386323   0.1651027   1.5176602   4.0289006   1.5398920
   18   0.0046899  -0.0061208  -0.0775485   0.1802116   1.5398920   4.3432202
   19  -0.0058428   0.0023894   0.0815347  -0.1107061   0.0810838   1.6613849
   20   0.0043396  -0.0074122   1.5470197   0.1772365  -0.0802418   0.0374087
   21   0.0011478   0.0030137  -0.0074287   0.0099567   0.0069190   0.9079765
   22  -0.0000021   0.0009432   0.0090801  -0.0055457   0.0091873  -0.0045382
   23   0.0023825   0.0011844   0.9362662  -0.0180823   0.0097667  -0.0076265
   24   0.0011365   0.0000427   0.0070087   0.0098616  -0.0072653   0.0102609
           19          20          21          22          23          24
    1   0.0015349   0.0002472  -0.0000407   0.0000492  -0.0000196  -0.0000392
    2   0.0039369   0.0009193  -0.0000949   0.0000306  -0.0001153   0.0000913
    3  -0.0180376   0.0878764   0.0000316  -0.0007683  -0.0133586   0.0001629
    4  -0.0242638   0.0252521   0.0008733  -0.0013281   0.0015819   0.0008641
    5  -0.0166628   0.0127257   0.0000973  -0.0007469  -0.0000390   0.0000220
    6   0.0696616   0.0101828  -0.0085112   0.0011963  -0.0003735  -0.0006153
    7   0.1830968  -0.0939401  -0.0022607   0.0028132   0.0037099  -0.0021176
    8   0.0652802   0.0171764  -0.0005165   0.0010912  -0.0089407  -0.0080079
    9  -0.0163989   0.0082200  -0.0048946  -0.0005867   0.0001830   0.0000449
   10  -0.0146854   0.0039470   0.0039199  -0.0086693  -0.0009941   0.0038143
   11   0.0042482   0.0007105   0.0000899   0.0000407  -0.0086720  -0.0001231
   12  -0.0167744   0.0234114   0.0000270  -0.0005249   0.0007051  -0.0049061
   13  -0.0058428   0.0043396   0.0011478  -0.0000021   0.0023825   0.0011365
   14   0.0023894  -0.0074122   0.0030137   0.0009432   0.0011844   0.0000427
   15   0.0815347   1.5470197  -0.0074287   0.0090801   0.9362662   0.0070087
   16  -0.1107061   0.1772365   0.0099567  -0.0055457  -0.0180823   0.0098616
   17   0.0810838  -0.0802418   0.0069190   0.0091873   0.0097667  -0.0072653
   18   1.6613849   0.0374087   0.9079765  -0.0045382  -0.0076265   0.0102609
   19   4.4830102   1.6595603  -0.0128237   0.9158591   0.0028037  -0.0131686
   20   1.6595603   4.3424561   0.0102928  -0.0046560  -0.0059035   0.9080831
   21  -0.0128237   0.0102928   0.9108424   0.0018826   0.0000426   0.0011427
   22   0.9158591  -0.0046560   0.0018826   0.9176048   0.0009436   0.0018539
   23   0.0028037  -0.0059035   0.0000426   0.0009436   0.8984034   0.0029589
   24  -0.0131686   0.9080831   0.0011427   0.0018539   0.0029589   0.9111056


 JobOver = TRUE
Archival summary:
1\1\qciep03\SP\HF\BasisUnspecified\6126\jcartus\ThuFeb112:33:402018ThuFeb112:33:402018\0\\#,HF,BasisUnspecified,\\0,1\F\C,1,1.3281\C,2,1.38923,1,120.046\F,3,1.32891,2,120.001,1,0.799827,0\C,3,1.38898,2,120.034,1,-179.644,0\F,5,1.33005,3,119.958,2,-179.064,0\C,5,1.38892,3,120.023,2,-0.0954258,0\F,7,1.33024,5,120.012,3,-179.062,0\C,7,1.38895,5,119.961,3,-0.0885883,0\F,9,1.3301,7,120.012,5,-178.879,0\C,9,1.38896,7,120.017,5,0.080983,0\F,11,1.32894,9,119.97,7,-179.414,0\C,1,3.3152,2,85.323,3,-89.7632,0\H,13,1.08128,1,83.6299,2,-179.851,0\C,13,1.39417,1,93.3154,2,60.3265,0\H,15,1.08145,13,120.026,1,84.6092,0\C,13,1.39417,1,92.9283,2,-59.9939,0\H,17,1.08148,13,120.026,1,-84.4003,0\C,15,1.39451,13,119.993,1,-95.3106,0\H,19,1.08192,15,119.989,13,-179.832,0\C,17,1.39454,13,119.991,1,95.5279,0\H,21,1.08197,17,119.987,13,179.818,0\C,21,1.39461,17,120.007,13,0.041552,0\H,23,1.08195,21,120.012,17,179.573,0\\HF=-1054.73858\\@

 Total job time:  1277.96s(wall), 1244.46s(cpu) 
 Thu Feb  1 12:33:40 2018

        *************************************************************
        *                                                           *
        *  Thank you very much for using Q-Chem.  Have a nice day.  *
        *                                                           *
        *************************************************************


*** MISSION COMPLETED -- STARFLEET OUT ***

0 sent ACK to 0 
now end server 0 ... 
