Process 0 of 1 is on qciep03 - thread support 0
initial socket setup ...start
initial socket setup ...done 
now start server 0 ... 
qciep03.tugraz.at 127.0.1
Q-Chem Developer Version! Running on 127.0.1.*
                  Welcome to Q-Chem
     A Quantum Leap Into The Future Of Chemistry


 Q-Chem 5.0, Q-Chem, Inc., Pleasanton, CA (2017)

 Yihan Shao,  Zhengting Gan,  E. Epifanovsky,  A. T. B. Gilbert,  M. Wormit,  
 J. Kussmann,  A. W. Lange,  A. Behn,  Jia Deng,  Xintian Feng,  D. Ghosh,  
 M. Goldey,  P. R. Horn,  L. D. Jacobson,  I. Kaliman,  T. Kus,  A. Landau,  
 Jie Liu,  E. I. Proynov,  R. M. Richard,  R. P. Steele,  E. J. Sundstrom,  
 H. L. Woodcock III,  P. M. Zimmerman,  D. Zuev,  B. Albrecht,  E. Alguire,  
 S. A. Baeppler,  D. Barton,  Z. Benda,  Y. A. Bernard,  E. J. Berquist,  
 K. B. Bravaya,  H. Burton,  D. Casanova,  Chun-Min Chang,  Yunqing Chen,  
 A. Chien,  K. D. Closser,  M. P. Coons,  S. Dasgupta,  A. L. Dempwolff,  
 M. Diedenhofen,  Hainam Do,  R. G. Edgar,  Po-Tung Fang,  S. Fatehi,  
 Qingguo Feng,  J. Fosso-Tande,  Qinghui Ge,  A. Ghysels,  G. Gidofalvi,  
 J. Gomes,  J. Gonthier,  A. Gunina,  M. W. D. Hanson-Heine,  
 P. H. P. Harbach,  A. W. Hauser,  J. E. Herr,  E. G. Hohenstein,  
 Z. C. Holden,  Kerwin Hui,  T.-C. Jagau,  Hyunjun Ji,  B. Kaduk,  
 K. Khistyaev,  Jaehoon Kim,  P. Klunzinger,  K. Koh,  D. Kosenkov,  
 L. Koulias,  T. Kowalczyk,  C. M. Krauter,  A. Kunitsa,  Ka Un Lao,  
 A. Laurent,  K. V. Lawler,  Joonho Lee,  D. Lefrancois,  S. Lehtola,  
 D. S. Levine,  Yi-Pei Li,  You-Sheng Lin,  Fenglai Liu,  E. Livshits,  
 A. Luenser,  P. Manohar,  E. Mansoor,  S. F. Manzer,  Shan-Ping Mao,  
 Yuezhi Mao,  N. Mardirossian,  A. V. Marenich,  T. Markovich,  
 L. A. Martinez-Martinez,  S. A. Maurer,  N. J. Mayhall,  S. C. McKenzie,  
 J.-M. Mewes,  A. F. Morrison,  J. W. Mullinax,  K. Nanda,  
 T. S. Nguyen-Beck,  R. Olivares-Amaya,  J. A. Parkhill,  T. M. Perrine,  
 F. Plasser,  S. Prager,  A. Prociuk,  E. Ramos,  D. R. Rehn,  F. Rob,  
 M. Schneider,  N. Sergueev,  S. M. Sharada,  S. Sharma,  D. W. Small,  
 T. Stauch,  T. Stein,  Yu-Chuan Su,  A. J. W. Thom,  A. Tkatchenko,  
 T. Tsuchimochi,  L. Vogt,  O. Vydrov,  M. A. Watson,  J. Wenzel,  
 M. de Wergifosse,  T. A. Wesolowski,  A. White,  J. Witte,  A. Yamada,  
 Jun Yang,  K. Yao,  S. Yeganeh,  S. R. Yost,  Zhi-Qiang You,  A. Zech,  
 Igor Ying Zhang,  Xing Zhang,  Yan Zhao,  Ying Zhu,  B. R. Brooks,  
 G. K. L. Chan,  C. J. Cramer,  M. S. Gordon,  W. J. Hehre,  A. Klamt,  
 M. W. Schmidt,  C. D. Sherrill,  D. G. Truhlar,  A. Aspuru-Guzik,  R. Baer,  
 A. T. Bell,  N. A. Besley,  Jeng-Da Chai,  R. A. DiStasio Jr.,  A. Dreuw,  
 B. D. Dunietz,  T. R. Furlani,  Chao-Ping Hsu,  Yousung Jung,  Jing Kong,  
 D. S. Lambrecht,  WanZhen Liang,  C. Ochsenfeld,  V. A. Rassolov,  
 L. V. Slipchenko,  J. E. Subotnik,  T. Van Voorhis,  J. M. Herbert,  
 A. I. Krylov,  P. M. W. Gill,  M. Head-Gordon

 Contributors to earlier versions of Q-Chem not listed above: 
 R. D. Adamson,  B. Austin,  J. Baker,  G. J. O. Beran,  K. Brandhorst,  
 S. T. Brown,  E. F. C. Byrd,  A. K. Chakraborty,  C.-L. Cheng,  
 Siu Hung Chien,  D. M. Chipman,  D. L. Crittenden,  H. Dachsel,  
 R. J. Doerksen,  A. D. Dutoi,  L. Fusti-Molnar,  W. A. Goddard III,  
 A. Golubeva-Zadorozhnaya,  S. R. Gwaltney,  G. Hawkins,  A. Heyden,  
 S. Hirata,  G. Kedziora,  F. J. Keil,  C. Kelley,  Jihan Kim,  R. A. King,  
 R. Z. Khaliullin,  P. P. Korambath,  W. Kurlancheek,  A. M. Lee,  M. S. Lee,  
 S. V. Levchenko,  Ching Yeh Lin,  D. Liotard,  R. C. Lochan,  I. Lotan,  
 P. E. Maslen,  N. Nair,  D. P. O'Neill,  D. Neuhauser,  E. Neuscamman,  
 C. M. Oana,  R. Olson,  B. Peters,  R. Peverati,  P. A. Pieniazek,  
 Y. M. Rhee,  J. Ritchie,  M. A. Rohrdanz,  E. Rosta,  N. J. Russ,  
 H. F. Schaefer III,  N. E. Schultz,  N. Shenvi,  A. C. Simmonett,  A. Sodt,  
 D. Stuck,  K. S. Thanthiriwatte,  V. Vanovschi,  Tao Wang,  A. Warshel,  
 C. F. Williams,  Q. Wu,  X. Xu,  W. Zhang

 Please cite Q-Chem as follows:
 Y. Shao et al., Mol. Phys. 113, 184-215 (2015)
 DOI: 10.1080/00268976.2014.952696

 Q-Chem 5.0.2 for Intel X86 EM64T Linux

 Parts of Q-Chem use Armadillo 5.200.1 (Boston Tea Smuggler).
 http://arma.sourceforge.net/

 Q-Chem begins on Thu Feb  1 12:00:30 2018  


Host: 0

     Scratch files written to /home/jcartus/scratch/23_benBr-Nm3_mono1.dir//
 Using version located at /usr/local/qchem/bin/qchem

 Parallel job on  1  processors

Total Memory Limit in MB = 2000
Mega-Array Size in MB = 192

Checking the input file for inconsistencies... 	...done.
Finally everything over in PARseQInput

--------------------------------------------------------------
User input:
--------------------------------------------------------------
$rem
SCF_PRINT                     1
BASIS                         6-311++g**
SCF_SAVE_MATRICES             1
SCF_CONVERGENCE               5
SCF_FINAL_PRINT               1
METHOD                        hf
JOBTYPE                       sp
$end

$molecule
0 1
C    -0.223913    0.002109    0.127404
C    -0.229554    0.001265    1.520572
C    0.966066    -0.0021    2.235729
C    2.176417    -0.004636    1.545888
C    2.194095    -0.003818    0.152623
C    0.992179    -0.000449    -0.552274
Br    -1.869237    0.004669    2.446186
H    0.946534    -0.002734    3.316252
H    3.10476    -0.007248    2.100804
H    3.135463    -0.005789    -0.378706
H    0.99688    0.000205    -1.633817
H    -1.159029    0.004715    -0.414303
$end


--------------------------------------------------------------
 ----------------------------------------------------------------
             Standard Nuclear Orientation (Angstroms)
    I     Atom           X                Y                Z
 ----------------------------------------------------------------
    1      C      -0.7759080473    -1.2105152146     0.0000103803
    2      C      -0.0861685576    -0.0000570180     0.0000164464
    3      C      -0.7758250438     1.2104560853     0.0000097114
    4      C      -2.1689521681     1.2046772290    -0.0000032640
    5      C      -2.8692216951     0.0000515069    -0.0000060448
    6      C      -2.1690389618    -1.2046216196    -0.0000042974
    7      Br      1.7967369635    -0.0000007659    -0.0000030718
    8      H      -0.2276727635     2.1418211759    -0.0000019399
    9      H      -2.7046200231     2.1442618523    -0.0000079577
   10      H      -3.9501879763     0.0000894905    -0.0000114987
   11      H      -2.7047771619    -2.1441653221    -0.0000094355
   12      H      -0.2278489557    -2.1419262036     0.0000007521
 ----------------------------------------------------------------
 Molecular Point Group                 C1    NOp =  1
 Largest Abelian Subgroup              C1    NOp =  1
 Nuclear Repulsion Energy =   432.2483402968 hartrees
 There are       38 alpha and       38 beta electrons
 Requested basis set is 6-311++G(d,p)
 There are 80 shells and 215 basis functions

 Total QAlloc Memory Limit   2000 MB
 Mega-Array Size       188 MB
 MEM_STATIC part       192 MB

finished with qalloc call

                       Distance Matrix (Angstroms)
             C (  1)   C (  2)   C (  3)   C (  4)   C (  5)   C (  6)
   C (  2)  1.393180
   C (  3)  2.420971  1.393186
   C (  4)  2.788140  2.406111  1.393139
   C (  5)  2.418147  2.783053  2.418137  1.393377
   C (  6)  1.393143  2.406102  2.788126  2.409299  1.393375
   Br(  7)  2.843211  1.882906  2.843111  4.144628  4.665959  4.144694
   H (  8)  3.396869  2.146547  1.080700  2.155645  3.400729  3.868796
   H (  9)  3.869685  3.384434  2.142952  1.081554  2.150519  3.391440
   H ( 10)  3.397296  3.864019  3.397288  2.150310  1.080966  2.150307
   H ( 11)  2.142951  3.384422  3.869669  3.391438  2.150513  1.081553
   H ( 12)  1.080692  2.146550  3.396873  3.868803  3.400723  2.155634
             Br(  7)   H (  8)   H (  9)   H ( 10)   H ( 11)
   H (  8)  2.947140
   H (  9)  4.985988  2.476948
   H ( 10)  5.746925  4.294663  2.479701
   H ( 11)  4.986088  4.950326  4.288427  2.479693
   H ( 12)  2.947337  4.283747  4.950334  4.294652  2.476929

 Job number = 2, Threshold = 1.00E-08
Integral type ranges set in mkLRange.C for JobNum: 2  <1-21|1-21>
Symmetry turned off temporarily
 Using the largest function pair in Schwarz integrals
Total number of integrals generated =          339363
Symmetry turned back on
 A cutoff of  1.0D-08 yielded   2712 shell pairs
 There are     20451 function pairs (     22173 Cartesian)
 Job number = 11, Threshold = 1.00E-08
Integral type ranges set in mkLRange.C for JobNum: 11  <1-21|22-22>
Total number of integrals generated =          265560
 Smallest overlap matrix eigenvalue = 1.05E-06

 Q-Chem warning in module /usr/local/qchem/stvman/mkSTV.C, line 295:

 Overlap eigenvalue is smaller than square root of threshold

 Multipole matrices computed through 2nd order

 Scale SEOQF with 1.000000e-01/1.000000e-01/1.000000e-01

 Standard Electronic Orientation quadrupole field applied
 Nucleus-field energy     =     0.0000000130 hartrees
 ENuRep (before)= 432.2483402968
 ENucField = 0.0000000130
 ENuRep (after) = 432.2483403097
 Guess from superposition of atomic densities
 Warning:  Energy on first SCF cycle will be non-variational
 SAD guess density has 76.000000 electrons

 ==================================================
    GEN_SCFMAN: A general SCF calculation manager  
                                                   
    Authors:                                       
        -- Eric Jon Sundstrom 2008-2014            
        -- Paul Horn 2010-2015                     
        -- Yuezhi Mao 2012-                        
        -- Dmitri Zuev 2014                        
        -- Alec White 2015-                        
        -- David Stuck 2015                        
        -- Shaama M.S. 2015                        
        -- Shane Yost 2015-                         
        -- Joonho Lee 2016-                        
        -- David Small 2016-                       
        -- Daniel Levine 2016-                     
        -- Susi Lehtola 2017-                      
        -- Hugh Burton 2017-                       
 ==================================================
 Hartree-Fock
Finding J and K together
 Job number = 22, Threshold = 1.00E-08
Integral type ranges set in mkLRange.C for JobNum: 22  <1-21|1-21>
 MakeJK  time:  CPU      10.55 s  wall      10.87 s
 HF Exchange:              -123.59772499174230
 One-Electron:             -4748.36456588028796
 Total Coulomb:            1634.43539098713404
 Nuclear repulsion:        432.24834030973881
 A restricted SCF calculation will be
 performed using DIIS
 SCF converges when DIIS error is below 1.0e-05
 ---------------------------------------
  Cycle       Energy         DIIS error
 ---------------------------------------
Finding J and K together
 Job number = 22, Threshold = 1.00E-08
Integral type ranges set in mkLRange.C for JobNum: 22  <1-21|1-21>
 MakeJK  time:  CPU      35.76 s  wall      39.48 s
 HF Exchange:              -122.40998970434381
 One-Electron:             -4751.10194834423692
 Total Coulomb:            1638.80455876511360
 Nuclear repulsion:        432.24834030973881
    1   -2805.2785595752      4.44e-02  
Finding J and K together
 Job number = 22, Threshold = 1.00E-08
Integral type ranges set in mkLRange.C for JobNum: 22  <1-21|1-21>
 MakeJK  time:  CPU      36.06 s  wall      37.74 s
 HF Exchange:              -122.54654354063716
 One-Electron:             -4752.88908456970694
 Total Coulomb:            1640.66081465719549
 Nuclear repulsion:        432.24834030973881
    2   -2802.4590389737      3.06e-03  
Finding J and K together
 Job number = 22, Threshold = 1.00E-08
Integral type ranges set in mkLRange.C for JobNum: 22  <1-21|1-21>
 MakeJK  time:  CPU      34.95 s  wall      37.96 s
 HF Exchange:              -122.54560245442416
 One-Electron:             -4751.94186207728217
 Total Coulomb:            1639.70257728013712
 Nuclear repulsion:        432.24834030973881
    3   -2802.5264731434      1.38e-03  
Finding J and K together
 Job number = 22, Threshold = 1.00E-08
Integral type ranges set in mkLRange.C for JobNum: 22  <1-21|1-21>
 MakeJK  time:  CPU      36.32 s  wall      37.15 s
 HF Exchange:              -122.55624043614694
 One-Electron:             -4752.25884209715696
 Total Coulomb:            1640.02726315328778
 Nuclear repulsion:        432.24834030973881
    4   -2802.5365469418      6.30e-04  
Finding J and K together
 Job number = 22, Threshold = 1.00E-08
Integral type ranges set in mkLRange.C for JobNum: 22  <1-21|1-21>
 MakeJK  time:  CPU      35.62 s  wall      40.21 s
 HF Exchange:              -122.55869495557643
 One-Electron:             -4752.25719600368666
 Total Coulomb:            1640.02797493905382
 Nuclear repulsion:        432.24834030973881
    5   -2802.5394790703      1.11e-04  
Finding J and K together
 Job number = 22, Threshold = 1.00E-08
Integral type ranges set in mkLRange.C for JobNum: 22  <1-21|1-21>
 MakeJK  time:  CPU      36.13 s  wall      37.33 s
 HF Exchange:              -122.55824815350388
 One-Electron:             -4752.23863929882100
 Total Coulomb:            1640.00895459149751
 Nuclear repulsion:        432.24834030973881
    6   -2802.5395757105      3.57e-05  
Finding J and K together
 Job number = 22, Threshold = 1.00E-08
Integral type ranges set in mkLRange.C for JobNum: 22  <1-21|1-21>
 MakeJK  time:  CPU      36.44 s  wall      37.09 s
 HF Exchange:              -122.55858916047492
 One-Electron:             -4752.24416812484742
 Total Coulomb:            1640.01482138621918
 Nuclear repulsion:        432.24834030973881
    7   -2802.5395925511      1.28e-05  
    8   -2802.5395955894      5.34e-06  Convergence criterion met
 ---------------------------------------
 SCF time:   CPU 264.01s  wall 280.00s 
 Total energy in the final basis set =    -2802.5395955894
 HF Exchange:              -122.55858916047492
 One-Electron:             -4752.24416812484742
 Total Coulomb:            1640.01482138621918
 Nuclear repulsion:        432.24834030973881
Wall  1 = 280
Clock 1 = 264.30062866210938
 ==================================================
                  Done GEN_SCFMAN                  
 ==================================================

Symmetry turned off temporarily

 --------------------------------------------------------------

                    Orbital Energies (a.u.)
 --------------------------------------------------------------

 Alpha MOs
 -- Occupied --
******* -65.161 -58.521 -58.519 -58.519 -11.303 -11.255 -11.255
-11.253 -11.253 -11.250  -9.841  -7.454  -7.446  -7.446  -3.194
 -3.190  -3.190  -3.180  -3.180  -1.179  -1.077  -1.035  -0.978
 -0.848  -0.821  -0.714  -0.648  -0.647  -0.607  -0.579  -0.534
 -0.517  -0.497  -0.440  -0.418  -0.354  -0.335
 -- Virtual --
  0.038   0.047   0.053   0.069   0.073   0.088   0.093   0.097
  0.117   0.125   0.125   0.138   0.147   0.147   0.173   0.175
  0.176   0.181   0.182   0.190   0.204   0.207   0.207   0.208
  0.220   0.221   0.227   0.235   0.237   0.255   0.281   0.292
  0.300   0.318   0.321   0.327   0.347   0.357   0.400   0.411
  0.411   0.426   0.472   0.474   0.491   0.494   0.580   0.583
  0.601   0.616   0.638   0.710   0.717   0.718   0.725   0.729
  0.730   0.741   0.774   0.777   0.784   0.787   0.803   0.819
  0.857   0.879   0.920   0.921   0.928   0.935   0.950   0.989
  1.006   1.011   1.030   1.050   1.064   1.102   1.109   1.123
  1.125   1.183   1.201   1.206   1.230   1.276   1.294   1.308
  1.345   1.375   1.518   1.521   1.605   1.720   1.778   1.781
  1.812   1.821   1.828   1.882   1.903   1.906   1.944   1.992
  2.005   2.042   2.100   2.144   2.214   2.216   2.217   2.232
  2.239   2.265   2.318   2.346   2.348   2.349   2.365   2.438
  2.592   2.596   2.644   2.671   2.739   2.782   2.791   2.850
  2.952   2.972   2.993   3.006   3.027   3.038   3.044   3.066
  3.153   3.174   3.176   3.191   3.273   3.278   3.311   3.468
  3.531   3.558   3.756   3.781   3.896   3.912   4.021   4.169
  4.395   4.455   4.534   4.556   4.557   4.611   4.637   4.789
  4.966   5.261   7.368   8.228   8.341   8.422  24.682  25.076
 25.122  25.223  25.248  25.348  49.603 293.911 294.026 294.132
*******
 --------------------------------------------------------------

          Ground-State Mulliken Net Atomic Charges

     Atom                 Charge (a.u.)
  ----------------------------------------
      1 C                    -0.362479
      2 C                     0.649696
      3 C                    -0.362433
      4 C                    -0.159209
      5 C                    -0.352413
      6 C                    -0.159192
      7 Br                   -0.382414
      8 H                     0.258341
      9 H                     0.202323
     10 H                     0.207121
     11 H                     0.202322
     12 H                     0.258338
  ----------------------------------------
  Sum of atomic charges =     0.000000

 -----------------------------------------------------------------
                    Cartesian Multipole Moments
 -----------------------------------------------------------------
    Charge (ESU x 10^10)
                 0.0000
    Dipole Moment (Debye)
         X      -2.0037      Y       0.0000      Z      -0.0000
       Tot       2.0037
    Quadrupole Moments (Debye-Ang)
        XX     -49.4508     XY       0.0002     YY     -48.4310
        XZ       0.0000     YZ      -0.0000     ZZ     -58.7820
    Octopole Moments (Debye-Ang^2)
       XXX      41.2736    XXY       0.0007    XYY      11.2151
       YYY      -0.0002    XXZ      -0.0003    XYZ      -0.0000
       YYZ      -0.0002    XZZ      26.4251    YZZ      -0.0000
       ZZZ      -0.0002
    Hexadecapole Moments (Debye-Ang^3)
      XXXX   -1016.3505   XXXY       0.0015   XXYY    -224.0728
      XYYY       0.0004   YYYY    -282.9645   XXXZ       0.0001
      XXYZ       0.0000   XYYZ       0.0002   YYYZ      -0.0000
      XXZZ    -223.3630   XYZZ       0.0000   YYZZ     -72.1819
      XZZZ      -0.0002   YZZZ      -0.0000   ZZZZ     -72.2355
 -----------------------------------------------------------------
 Mayer SCF Bond Order, atomic valence on the diagonal:

            1           2           3           4           5           6
    1   4.6152935   1.7883184   0.2287646  -0.0245180   0.0330203   1.7230326
    2   1.7883184   3.3803936   1.7882689  -0.3516269   0.1480783  -0.3516228
    3   0.2287646   1.7882689   4.6153534   1.7230880   0.0329801  -0.0244968
    4  -0.0245180  -0.3516269   1.7230880   4.3330701   1.8886180  -0.1806395
    5   0.0330203   0.1480783   0.0329801   1.8886180   4.7176677   1.8886471
    6   1.7230326  -0.3516228  -0.0244968  -0.1806395   1.8886471   4.3330869
    7   0.3181530   0.0086133   0.3181791   0.1043356   0.0160574   0.1043458
    8  -0.0382966   0.1474275   0.6512564   0.1432937  -0.0424416   0.0256983
    9  -0.0105388   0.0104356   0.0013788   0.8692750   0.0423463  -0.0060886
   10  -0.0552386   0.0345961  -0.0552382   0.1416364   0.7104668   0.1416408
   11   0.0013672   0.0104437  -0.0105385  -0.0060898   0.0423407   0.8692839
   12   0.6512295   0.1474614  -0.0382889   0.0256976  -0.0424456   0.1432862
            7           8           9          10          11          12
    1   0.3181530  -0.0382966  -0.0105388  -0.0552386   0.0013672   0.6512295
    2   0.0086133   0.1474275   0.0104356   0.0345961   0.0104437   0.1474614
    3   0.3181791   0.6512564   0.0013788  -0.0552382  -0.0105385  -0.0382889
    4   0.1043356   0.1432937   0.8692750   0.1416364  -0.0060898   0.0256976
    5   0.0160574  -0.0424416   0.0423463   0.7104668   0.0423407  -0.0424456
    6   0.1043458   0.0256983  -0.0060886   0.1416408   0.8692839   0.1432862
    7   0.8459176  -0.0146442   0.0033942  -0.0012688   0.0033941  -0.0146419
    8  -0.0146442   0.8780027   0.0057338   0.0001292  -0.0000617  -0.0000919
    9   0.0033942   0.0057338   0.9268151   0.0100165   0.0009240  -0.0000616
   10  -0.0012688   0.0001292   0.0100165   0.9368858   0.0100166   0.0001290
   11   0.0033941  -0.0000617   0.0009240   0.0100166   0.9268133   0.0057331
   12  -0.0146419  -0.0000919  -0.0000616   0.0001290   0.0057331   0.8780068


 JobOver = TRUE
Archival summary:
1\1\qciep03\SP\HF\BasisUnspecified\r165\jcartus\ThuFeb112:05:112018ThuFeb112:05:112018\0\\#,HF,BasisUnspecified,\\0,1\Br\C,1,1.88291\C,2,1.39318,1,119.677\H,3,1.08069,2,119.851,1,0,0\C,3,1.39314,2,119.433,1,-179.999,0\H,5,1.08155,3,119.45,2,180,0\C,2,1.39319,1,119.669,3,-179.999,0\H,7,1.0807,2,119.85,1,-0,0\C,7,1.39314,2,119.433,1,179.999,0\H,9,1.08155,7,119.45,2,180,0\C,5,1.39337,3,120.408,2,-0,0\H,11,1.08097,5,120.168,3,-180,0\\HF=-2802.5396\\@

 Total job time:  281.40s(wall), 265.26s(cpu) 
 Thu Feb  1 12:05:11 2018

        *************************************************************
        *                                                           *
        *  Thank you very much for using Q-Chem.  Have a nice day.  *
        *                                                           *
        *************************************************************


*** MISSION COMPLETED -- STARFLEET OUT ***

0 sent ACK to 0 
now end server 0 ... 
