Process 0 of 1 is on qciep03 - thread support 0
initial socket setup ...start
initial socket setup ...done 
now start server 0 ... 
qciep03.tugraz.at 127.0.1
Q-Chem Developer Version! Running on 127.0.1.*
                  Welcome to Q-Chem
     A Quantum Leap Into The Future Of Chemistry


 Q-Chem 5.0, Q-Chem, Inc., Pleasanton, CA (2017)

 Yihan Shao,  Zhengting Gan,  E. Epifanovsky,  A. T. B. Gilbert,  M. Wormit,  
 J. Kussmann,  A. W. Lange,  A. Behn,  Jia Deng,  Xintian Feng,  D. Ghosh,  
 M. Goldey,  P. R. Horn,  L. D. Jacobson,  I. Kaliman,  T. Kus,  A. Landau,  
 Jie Liu,  E. I. Proynov,  R. M. Richard,  R. P. Steele,  E. J. Sundstrom,  
 H. L. Woodcock III,  P. M. Zimmerman,  D. Zuev,  B. Albrecht,  E. Alguire,  
 S. A. Baeppler,  D. Barton,  Z. Benda,  Y. A. Bernard,  E. J. Berquist,  
 K. B. Bravaya,  H. Burton,  D. Casanova,  Chun-Min Chang,  Yunqing Chen,  
 A. Chien,  K. D. Closser,  M. P. Coons,  S. Dasgupta,  A. L. Dempwolff,  
 M. Diedenhofen,  Hainam Do,  R. G. Edgar,  Po-Tung Fang,  S. Fatehi,  
 Qingguo Feng,  J. Fosso-Tande,  Qinghui Ge,  A. Ghysels,  G. Gidofalvi,  
 J. Gomes,  J. Gonthier,  A. Gunina,  M. W. D. Hanson-Heine,  
 P. H. P. Harbach,  A. W. Hauser,  J. E. Herr,  E. G. Hohenstein,  
 Z. C. Holden,  Kerwin Hui,  T.-C. Jagau,  Hyunjun Ji,  B. Kaduk,  
 K. Khistyaev,  Jaehoon Kim,  P. Klunzinger,  K. Koh,  D. Kosenkov,  
 L. Koulias,  T. Kowalczyk,  C. M. Krauter,  A. Kunitsa,  Ka Un Lao,  
 A. Laurent,  K. V. Lawler,  Joonho Lee,  D. Lefrancois,  S. Lehtola,  
 D. S. Levine,  Yi-Pei Li,  You-Sheng Lin,  Fenglai Liu,  E. Livshits,  
 A. Luenser,  P. Manohar,  E. Mansoor,  S. F. Manzer,  Shan-Ping Mao,  
 Yuezhi Mao,  N. Mardirossian,  A. V. Marenich,  T. Markovich,  
 L. A. Martinez-Martinez,  S. A. Maurer,  N. J. Mayhall,  S. C. McKenzie,  
 J.-M. Mewes,  A. F. Morrison,  J. W. Mullinax,  K. Nanda,  
 T. S. Nguyen-Beck,  R. Olivares-Amaya,  J. A. Parkhill,  T. M. Perrine,  
 F. Plasser,  S. Prager,  A. Prociuk,  E. Ramos,  D. R. Rehn,  F. Rob,  
 M. Schneider,  N. Sergueev,  S. M. Sharada,  S. Sharma,  D. W. Small,  
 T. Stauch,  T. Stein,  Yu-Chuan Su,  A. J. W. Thom,  A. Tkatchenko,  
 T. Tsuchimochi,  L. Vogt,  O. Vydrov,  M. A. Watson,  J. Wenzel,  
 M. de Wergifosse,  T. A. Wesolowski,  A. White,  J. Witte,  A. Yamada,  
 Jun Yang,  K. Yao,  S. Yeganeh,  S. R. Yost,  Zhi-Qiang You,  A. Zech,  
 Igor Ying Zhang,  Xing Zhang,  Yan Zhao,  Ying Zhu,  B. R. Brooks,  
 G. K. L. Chan,  C. J. Cramer,  M. S. Gordon,  W. J. Hehre,  A. Klamt,  
 M. W. Schmidt,  C. D. Sherrill,  D. G. Truhlar,  A. Aspuru-Guzik,  R. Baer,  
 A. T. Bell,  N. A. Besley,  Jeng-Da Chai,  R. A. DiStasio Jr.,  A. Dreuw,  
 B. D. Dunietz,  T. R. Furlani,  Chao-Ping Hsu,  Yousung Jung,  Jing Kong,  
 D. S. Lambrecht,  WanZhen Liang,  C. Ochsenfeld,  V. A. Rassolov,  
 L. V. Slipchenko,  J. E. Subotnik,  T. Van Voorhis,  J. M. Herbert,  
 A. I. Krylov,  P. M. W. Gill,  M. Head-Gordon

 Contributors to earlier versions of Q-Chem not listed above: 
 R. D. Adamson,  B. Austin,  J. Baker,  G. J. O. Beran,  K. Brandhorst,  
 S. T. Brown,  E. F. C. Byrd,  A. K. Chakraborty,  C.-L. Cheng,  
 Siu Hung Chien,  D. M. Chipman,  D. L. Crittenden,  H. Dachsel,  
 R. J. Doerksen,  A. D. Dutoi,  L. Fusti-Molnar,  W. A. Goddard III,  
 A. Golubeva-Zadorozhnaya,  S. R. Gwaltney,  G. Hawkins,  A. Heyden,  
 S. Hirata,  G. Kedziora,  F. J. Keil,  C. Kelley,  Jihan Kim,  R. A. King,  
 R. Z. Khaliullin,  P. P. Korambath,  W. Kurlancheek,  A. M. Lee,  M. S. Lee,  
 S. V. Levchenko,  Ching Yeh Lin,  D. Liotard,  R. C. Lochan,  I. Lotan,  
 P. E. Maslen,  N. Nair,  D. P. O'Neill,  D. Neuhauser,  E. Neuscamman,  
 C. M. Oana,  R. Olson,  B. Peters,  R. Peverati,  P. A. Pieniazek,  
 Y. M. Rhee,  J. Ritchie,  M. A. Rohrdanz,  E. Rosta,  N. J. Russ,  
 H. F. Schaefer III,  N. E. Schultz,  N. Shenvi,  A. C. Simmonett,  A. Sodt,  
 D. Stuck,  K. S. Thanthiriwatte,  V. Vanovschi,  Tao Wang,  A. Warshel,  
 C. F. Williams,  Q. Wu,  X. Xu,  W. Zhang

 Please cite Q-Chem as follows:
 Y. Shao et al., Mol. Phys. 113, 184-215 (2015)
 DOI: 10.1080/00268976.2014.952696

 Q-Chem 5.0.2 for Intel X86 EM64T Linux

 Parts of Q-Chem use Armadillo 5.200.1 (Boston Tea Smuggler).
 http://arma.sourceforge.net/

 Q-Chem begins on Thu Feb  1 11:55:45 2018  


Host: 0

     Scratch files written to /home/jcartus/scratch/34_HCl-mOH.dir//
 Using version located at /usr/local/qchem/bin/qchem

 Parallel job on  1  processors

Total Memory Limit in MB = 2000
Mega-Array Size in MB = 192

Checking the input file for inconsistencies... 	...done.
Finally everything over in PARseQInput

--------------------------------------------------------------
User input:
--------------------------------------------------------------
$rem
SCF_PRINT                     1
BASIS                         6-311++g**
SCF_SAVE_MATRICES             1
SCF_CONVERGENCE               5
SCF_FINAL_PRINT               1
METHOD                        hf
JOBTYPE                       sp
$end

$molecule
0 1
Cl    0.37773392    -4.83e-07    0.006430557
H    0.049409273    -1.882e-06    1.255616511
O    -0.222171001    7.107e-06    3.082519813
H    -1.034384448    -5.361e-06    3.593737797
C    0.882609855    1.116e-06    3.981271022
H    1.779241003    -4.02e-07    3.370105894
H    0.890969395    0.888981441    4.610910354
H    0.890965051    -0.888981553    4.610907087
$end


--------------------------------------------------------------
 ----------------------------------------------------------------
             Standard Nuclear Orientation (Angstroms)
    I     Atom           X                Y                Z
 ----------------------------------------------------------------
    1      Cl      1.8279532844    -0.0840078667    -0.0000001045
    2      H       0.5889922968     0.2810103418    -0.0000035273
    3      O      -1.2291080985     0.6063447432     0.0000030867
    4      H      -1.7161529922     1.4332799173    -0.0000121101
    5      C      -2.1600465480    -0.4714530480    -0.0000006007
    6      H      -1.5755873073    -1.3857164812     0.0000009350
    7      H      -2.7896592861    -0.4612394592     0.8889791916
    8      H      -2.7896544698    -0.4612402424    -0.8889838024
 ----------------------------------------------------------------
 Molecular Point Group                 C1    NOp =  1
 Largest Abelian Subgroup              C1    NOp =  1
 Nuclear Repulsion Energy =    96.4222565711 hartrees
 There are       18 alpha and       18 beta electrons
 Requested basis set is 6-311++G(d,p)
 There are 50 shells and 109 basis functions

 Total QAlloc Memory Limit   2000 MB
 Mega-Array Size       188 MB
 MEM_STATIC part       192 MB

finished with qalloc call

                       Distance Matrix (Angstroms)
             Cl(  1)   H (  2)   O (  3)   H (  4)   C (  5)   H (  6)
   H (  2)  1.291612
   O (  3)  3.134041  1.846979
   H (  4)  3.855237  2.577095  0.959705
   C (  5)  4.006776  2.850161  1.424182  1.955773
   H (  6)  3.643972  2.731919  2.021968  2.822499  1.085113
   H (  7)  4.717514  3.571626  2.089338  2.352004  1.089404  1.766044
   H (  8)  4.717510  3.571621  2.089340  2.351995  1.089404  1.766043
             H (  7)
   H (  8)  1.777963

 Job number = 2, Threshold = 1.00E-08
Integral type ranges set in mkLRange.C for JobNum: 2  <1-21|1-21>
Symmetry turned off temporarily
 Using the largest function pair in Schwarz integrals
Total number of integrals generated =           62538
Symmetry turned back on
 A cutoff of  1.0D-08 yielded   1115 shell pairs
 There are      5312 function pairs (      5598 Cartesian)
 Job number = 11, Threshold = 1.00E-08
Integral type ranges set in mkLRange.C for JobNum: 11  <1-21|22-22>
Total number of integrals generated =           44760
 Smallest overlap matrix eigenvalue = 9.97E-04
 Multipole matrices computed through 2nd order

 Scale SEOQF with 1.000000e-01/1.000000e-01/1.000000e-01

 Standard Electronic Orientation quadrupole field applied
 Nucleus-field energy     =     0.0000000047 hartrees
 ENuRep (before)= 96.4222565711
 ENucField = 0.0000000047
 ENuRep (after) = 96.4222565758
 Guess from superposition of atomic densities
 Warning:  Energy on first SCF cycle will be non-variational
 SAD guess density has 36.000000 electrons

 ==================================================
    GEN_SCFMAN: A general SCF calculation manager  
                                                   
    Authors:                                       
        -- Eric Jon Sundstrom 2008-2014            
        -- Paul Horn 2010-2015                     
        -- Yuezhi Mao 2012-                        
        -- Dmitri Zuev 2014                        
        -- Alec White 2015-                        
        -- David Stuck 2015                        
        -- Shaama M.S. 2015                        
        -- Shane Yost 2015-                         
        -- Joonho Lee 2016-                        
        -- David Small 2016-                       
        -- Daniel Levine 2016-                     
        -- Susi Lehtola 2017-                      
        -- Hugh Burton 2017-                       
 ==================================================
 Hartree-Fock
Finding J and K together
 Job number = 22, Threshold = 1.00E-08
Integral type ranges set in mkLRange.C for JobNum: 22  <1-21|1-21>
 MakeJK  time:  CPU       1.41 s  wall       1.67 s
 HF Exchange:              -42.45033778482900
 One-Electron:             -982.11302281893177
 Total Coulomb:            352.74504800763333
 Nuclear repulsion:         96.42225657581531
 A restricted SCF calculation will be
 performed using DIIS
 SCF converges when DIIS error is below 1.0e-05
 ---------------------------------------
  Cycle       Energy         DIIS error
 ---------------------------------------
Finding J and K together
 Job number = 22, Threshold = 1.00E-08
Integral type ranges set in mkLRange.C for JobNum: 22  <1-21|1-21>
 MakeJK  time:  CPU       3.14 s  wall       3.61 s
 HF Exchange:              -42.77689869534630
 One-Electron:             -985.67760605702779
 Total Coulomb:            356.89100588530079
 Nuclear repulsion:         96.42225657581531
    1    -575.3960560203      5.08e-02  
Finding J and K together
 Job number = 22, Threshold = 1.00E-08
Integral type ranges set in mkLRange.C for JobNum: 22  <1-21|1-21>
 MakeJK  time:  CPU       3.14 s  wall       3.91 s
 HF Exchange:              -42.67717955638022
 One-Electron:             -984.31823941448590
 Total Coulomb:            355.39530809135692
 Nuclear repulsion:         96.42225657581531
    2    -575.1412422913      5.11e-03  
Finding J and K together
 Job number = 22, Threshold = 1.00E-08
Integral type ranges set in mkLRange.C for JobNum: 22  <1-21|1-21>
 MakeJK  time:  CPU       3.18 s  wall       3.34 s
 HF Exchange:              -42.75951680785880
 One-Electron:             -984.97548551368175
 Total Coulomb:            356.12977779651698
 Nuclear repulsion:         96.42225657581531
    3    -575.1778543037      2.22e-03  
Finding J and K together
 Job number = 22, Threshold = 1.00E-08
Integral type ranges set in mkLRange.C for JobNum: 22  <1-21|1-21>
 MakeJK  time:  CPU       2.99 s  wall       3.00 s
 HF Exchange:              -42.75199406256341
 One-Electron:             -984.87605228774009
 Total Coulomb:            356.02223633608173
 Nuclear repulsion:         96.42225657581531
    4    -575.1829679492      6.28e-04  
Finding J and K together
 Job number = 22, Threshold = 1.00E-08
Integral type ranges set in mkLRange.C for JobNum: 22  <1-21|1-21>
 MakeJK  time:  CPU       2.98 s  wall       3.18 s
 HF Exchange:              -42.75448905116068
 One-Electron:             -984.87801988015201
 Total Coulomb:            356.02665508862532
 Nuclear repulsion:         96.42225657581531
    5    -575.1835534384      1.47e-04  
Finding J and K together
 Job number = 22, Threshold = 1.00E-08
Integral type ranges set in mkLRange.C for JobNum: 22  <1-21|1-21>
 MakeJK  time:  CPU       3.17 s  wall       3.51 s
 HF Exchange:              -42.75479370568122
 One-Electron:             -984.87805375419850
 Total Coulomb:            356.02699008334508
 Nuclear repulsion:         96.42225657581531
    6    -575.1835972669      3.52e-05  
    7    -575.1836008007      8.72e-06  Convergence criterion met
 ---------------------------------------
 SCF time:   CPU 20.29s  wall 22.00s 
 Total energy in the final basis set =     -575.1836008007
 HF Exchange:              -42.75479370568122
 One-Electron:             -984.87805375419850
 Total Coulomb:            356.02699008334508
 Nuclear repulsion:         96.42225657581531
Wall  1 = 22
Clock 1 = 20.35079193115234
 ==================================================
                  Done GEN_SCFMAN                  
 ==================================================

Symmetry turned off temporarily

 --------------------------------------------------------------

                    Orbital Energies (a.u.)
 --------------------------------------------------------------

 Alpha MOs
 -- Occupied --
******* -20.592 -11.294 -10.537  -8.006  -8.003  -8.003  -1.393
 -1.083  -0.953  -0.729  -0.647  -0.640  -0.582  -0.524  -0.484
 -0.445  -0.444
 -- Virtual --
  0.032   0.057   0.065   0.073   0.098   0.122   0.135   0.136
  0.161   0.171   0.176   0.179   0.240   0.252   0.278   0.281
  0.296   0.303   0.333   0.339   0.376   0.401   0.464   0.564
  0.570   0.601   0.623   0.641   0.670   0.709   0.764   0.829
  0.842   0.863   1.031   1.043   1.110   1.170   1.172   1.173
  1.208   1.213   1.300   1.343   1.350   1.581   1.604   1.695
  1.730   1.790   1.798   1.822   1.823   1.879   1.948   1.952
  2.069   2.281   2.334   2.401   2.491   2.639   2.646   2.667
  2.724   2.747   2.775   2.777   2.840   2.858   2.952   2.995
  3.188   3.319   3.428   3.563   3.661   4.156   4.174   4.315
  4.426   5.535   5.946   6.185  10.528  25.064  26.671  26.717
 26.954  51.574 219.389
 --------------------------------------------------------------

          Ground-State Mulliken Net Atomic Charges

     Atom                 Charge (a.u.)
  ----------------------------------------
      1 Cl                   -0.247842
      2 H                     0.239080
      3 O                    -0.437713
      4 H                     0.294657
      5 C                    -0.229317
      6 H                     0.134975
      7 H                     0.123080
      8 H                     0.123080
  ----------------------------------------
  Sum of atomic charges =     0.000000

 -----------------------------------------------------------------
                    Cartesian Multipole Moments
 -----------------------------------------------------------------
    Charge (ESU x 10^10)
                 0.0000
    Dipole Moment (Debye)
         X      -4.3588      Y       0.6087      Z      -0.0000
       Tot       4.4011
    Quadrupole Moments (Debye-Ang)
        XX     -23.6912     XY      -1.4771     YY     -24.1491
        XZ       0.0001     YZ      -0.0001     ZZ     -27.9269
    Octopole Moments (Debye-Ang^2)
       XXX     -20.3336    XXY       3.1987    XYY      -7.5885
       YYY       7.7880    XXZ      -0.0001    XYZ       0.0001
       YYZ      -0.0001    XZZ      -2.5296    YZZ       0.6876
       ZZZ      -0.0000
    Hexadecapole Moments (Debye-Ang^3)
      XXXX    -533.0380   XXXY     -16.6383   XXYY     -96.1172
      XYYY     -13.7475   YYYY     -54.1546   XXXZ       0.0002
      XXYZ      -0.0001   XYYZ       0.0001   YYYZ      -0.0001
      XXZZ    -100.2707   XYZZ      -0.9565   YYZZ     -17.6002
      XZZZ       0.0000   YZZZ      -0.0000   ZZZZ     -36.5402
 -----------------------------------------------------------------
 Mayer SCF Bond Order, atomic valence on the diagonal:

            1           2           3           4           5           6
    1   0.8745091   0.8602510   0.0010860  -0.0009964  -0.0013306   0.0195314
    2   0.8602510   0.8811990   0.0144492  -0.0000591   0.0057429   0.0045688
    3   0.0010860   0.0144492   1.6047163   0.9196911   0.7945217  -0.0531606
    4  -0.0009964  -0.0000591   0.9196911   0.9367795   0.0154994   0.0039322
    5  -0.0013306   0.0057429   0.7945217   0.0154994   3.7977801   1.0018386
    6   0.0195314   0.0045688  -0.0531606   0.0039322   1.0018386   0.9439669
    7  -0.0020160  -0.0018769  -0.0359355  -0.0006440   0.9907541  -0.0163718
    8  -0.0020162  -0.0018769  -0.0359356  -0.0006437   0.9907540  -0.0163717
            7           8
    1  -0.0020160  -0.0020162
    2  -0.0018769  -0.0018769
    3  -0.0359355  -0.0359356
    4  -0.0006440  -0.0006437
    5   0.9907541   0.9907540
    6  -0.0163718  -0.0163717
    7   0.9099085  -0.0240015
    8  -0.0240015   0.9099085


 JobOver = TRUE
Archival summary:
1\1\qciep03\SP\HF\BasisUnspecified\l1115\jcartus\ThuFeb111:56:082018ThuFeb111:56:082018\0\\#,HF,BasisUnspecified,\\0,1\O\H,1,0.959705\C,1,1.42418,2,108.684\H,3,1.08511,1,106.592,2,179.999,0\H,3,1.0894,1,111.758,2,61.4754,0\H,3,1.0894,1,111.758,2,-61.4771,0\H,1,1.84698,2,130.642,3,179.998,0\Cl,7,1.29161,1,173.729,2,179.998,0\\HF=-575.183601\\@

 Total job time:  23.18s(wall), 20.64s(cpu) 
 Thu Feb  1 11:56:08 2018

        *************************************************************
        *                                                           *
        *  Thank you very much for using Q-Chem.  Have a nice day.  *
        *                                                           *
        *************************************************************


*** MISSION COMPLETED -- STARFLEET OUT ***

0 sent ACK to 0 
now end server 0 ... 
