Process 0 of 1 is on qciep03 - thread support 0
initial socket setup ...start
initial socket setup ...done 
now start server 0 ... 
qciep03.tugraz.at 127.0.1
Q-Chem Developer Version! Running on 127.0.1.*
                  Welcome to Q-Chem
     A Quantum Leap Into The Future Of Chemistry


 Q-Chem 5.0, Q-Chem, Inc., Pleasanton, CA (2017)

 Yihan Shao,  Zhengting Gan,  E. Epifanovsky,  A. T. B. Gilbert,  M. Wormit,  
 J. Kussmann,  A. W. Lange,  A. Behn,  Jia Deng,  Xintian Feng,  D. Ghosh,  
 M. Goldey,  P. R. Horn,  L. D. Jacobson,  I. Kaliman,  T. Kus,  A. Landau,  
 Jie Liu,  E. I. Proynov,  R. M. Richard,  R. P. Steele,  E. J. Sundstrom,  
 H. L. Woodcock III,  P. M. Zimmerman,  D. Zuev,  B. Albrecht,  E. Alguire,  
 S. A. Baeppler,  D. Barton,  Z. Benda,  Y. A. Bernard,  E. J. Berquist,  
 K. B. Bravaya,  H. Burton,  D. Casanova,  Chun-Min Chang,  Yunqing Chen,  
 A. Chien,  K. D. Closser,  M. P. Coons,  S. Dasgupta,  A. L. Dempwolff,  
 M. Diedenhofen,  Hainam Do,  R. G. Edgar,  Po-Tung Fang,  S. Fatehi,  
 Qingguo Feng,  J. Fosso-Tande,  Qinghui Ge,  A. Ghysels,  G. Gidofalvi,  
 J. Gomes,  J. Gonthier,  A. Gunina,  M. W. D. Hanson-Heine,  
 P. H. P. Harbach,  A. W. Hauser,  J. E. Herr,  E. G. Hohenstein,  
 Z. C. Holden,  Kerwin Hui,  T.-C. Jagau,  Hyunjun Ji,  B. Kaduk,  
 K. Khistyaev,  Jaehoon Kim,  P. Klunzinger,  K. Koh,  D. Kosenkov,  
 L. Koulias,  T. Kowalczyk,  C. M. Krauter,  A. Kunitsa,  Ka Un Lao,  
 A. Laurent,  K. V. Lawler,  Joonho Lee,  D. Lefrancois,  S. Lehtola,  
 D. S. Levine,  Yi-Pei Li,  You-Sheng Lin,  Fenglai Liu,  E. Livshits,  
 A. Luenser,  P. Manohar,  E. Mansoor,  S. F. Manzer,  Shan-Ping Mao,  
 Yuezhi Mao,  N. Mardirossian,  A. V. Marenich,  T. Markovich,  
 L. A. Martinez-Martinez,  S. A. Maurer,  N. J. Mayhall,  S. C. McKenzie,  
 J.-M. Mewes,  A. F. Morrison,  J. W. Mullinax,  K. Nanda,  
 T. S. Nguyen-Beck,  R. Olivares-Amaya,  J. A. Parkhill,  T. M. Perrine,  
 F. Plasser,  S. Prager,  A. Prociuk,  E. Ramos,  D. R. Rehn,  F. Rob,  
 M. Schneider,  N. Sergueev,  S. M. Sharada,  S. Sharma,  D. W. Small,  
 T. Stauch,  T. Stein,  Yu-Chuan Su,  A. J. W. Thom,  A. Tkatchenko,  
 T. Tsuchimochi,  L. Vogt,  O. Vydrov,  M. A. Watson,  J. Wenzel,  
 M. de Wergifosse,  T. A. Wesolowski,  A. White,  J. Witte,  A. Yamada,  
 Jun Yang,  K. Yao,  S. Yeganeh,  S. R. Yost,  Zhi-Qiang You,  A. Zech,  
 Igor Ying Zhang,  Xing Zhang,  Yan Zhao,  Ying Zhu,  B. R. Brooks,  
 G. K. L. Chan,  C. J. Cramer,  M. S. Gordon,  W. J. Hehre,  A. Klamt,  
 M. W. Schmidt,  C. D. Sherrill,  D. G. Truhlar,  A. Aspuru-Guzik,  R. Baer,  
 A. T. Bell,  N. A. Besley,  Jeng-Da Chai,  R. A. DiStasio Jr.,  A. Dreuw,  
 B. D. Dunietz,  T. R. Furlani,  Chao-Ping Hsu,  Yousung Jung,  Jing Kong,  
 D. S. Lambrecht,  WanZhen Liang,  C. Ochsenfeld,  V. A. Rassolov,  
 L. V. Slipchenko,  J. E. Subotnik,  T. Van Voorhis,  J. M. Herbert,  
 A. I. Krylov,  P. M. W. Gill,  M. Head-Gordon

 Contributors to earlier versions of Q-Chem not listed above: 
 R. D. Adamson,  B. Austin,  J. Baker,  G. J. O. Beran,  K. Brandhorst,  
 S. T. Brown,  E. F. C. Byrd,  A. K. Chakraborty,  C.-L. Cheng,  
 Siu Hung Chien,  D. M. Chipman,  D. L. Crittenden,  H. Dachsel,  
 R. J. Doerksen,  A. D. Dutoi,  L. Fusti-Molnar,  W. A. Goddard III,  
 A. Golubeva-Zadorozhnaya,  S. R. Gwaltney,  G. Hawkins,  A. Heyden,  
 S. Hirata,  G. Kedziora,  F. J. Keil,  C. Kelley,  Jihan Kim,  R. A. King,  
 R. Z. Khaliullin,  P. P. Korambath,  W. Kurlancheek,  A. M. Lee,  M. S. Lee,  
 S. V. Levchenko,  Ching Yeh Lin,  D. Liotard,  R. C. Lochan,  I. Lotan,  
 P. E. Maslen,  N. Nair,  D. P. O'Neill,  D. Neuhauser,  E. Neuscamman,  
 C. M. Oana,  R. Olson,  B. Peters,  R. Peverati,  P. A. Pieniazek,  
 Y. M. Rhee,  J. Ritchie,  M. A. Rohrdanz,  E. Rosta,  N. J. Russ,  
 H. F. Schaefer III,  N. E. Schultz,  N. Shenvi,  A. C. Simmonett,  A. Sodt,  
 D. Stuck,  K. S. Thanthiriwatte,  V. Vanovschi,  Tao Wang,  A. Warshel,  
 C. F. Williams,  Q. Wu,  X. Xu,  W. Zhang

 Please cite Q-Chem as follows:
 Y. Shao et al., Mol. Phys. 113, 184-215 (2015)
 DOI: 10.1080/00268976.2014.952696

 Q-Chem 5.0.2 for Intel X86 EM64T Linux

 Parts of Q-Chem use Armadillo 5.200.1 (Boston Tea Smuggler).
 http://arma.sourceforge.net/

 Q-Chem begins on Thu Feb  1 12:09:46 2018  


Host: 0

     Scratch files written to /home/jcartus/scratch/34_HCl-mOH_mono2.dir//
 Using version located at /usr/local/qchem/bin/qchem

 Parallel job on  1  processors

Total Memory Limit in MB = 2000
Mega-Array Size in MB = 192

Checking the input file for inconsistencies... 	...done.
Finally everything over in PARseQInput

--------------------------------------------------------------
User input:
--------------------------------------------------------------
$rem
SCF_PRINT                     1
BASIS                         6-311++g**
SCF_SAVE_MATRICES             1
SCF_CONVERGENCE               5
SCF_FINAL_PRINT               1
METHOD                        hf
JOBTYPE                       sp
$end

$molecule
0 1
O    -0.222171001    7.107e-06    3.082519813
H    -1.034384448    -5.361e-06    3.593737797
C    0.882609855    1.116e-06    3.981271022
H    1.779241003    -4.02e-07    3.370105894
H    0.890969395    0.888981441    4.610910354
H    0.890965051    -0.888981553    4.610907087
$end


--------------------------------------------------------------
 ----------------------------------------------------------------
             Standard Nuclear Orientation (Angstroms)
    I     Atom           X                Y                Z
 ----------------------------------------------------------------
    1      O       0.7485996844    -0.1222502950    -0.0000000285
    2      H       1.1458341268     0.7513853892    -0.0000000667
    3      C      -0.6683755538     0.0208428558     0.0000000558
    4      H      -1.0811525078    -0.9826935986    -0.0000158588
    5      H      -1.0216131753     0.5421131372     0.8889894062
    6      H      -1.0216125965     0.5421402971    -0.8889735876
 ----------------------------------------------------------------
 Molecular Point Group                 C1    NOp =  1
 Largest Abelian Subgroup              C1    NOp =  1
 Nuclear Repulsion Energy =    40.3052471889 hartrees
 There are        9 alpha and        9 beta electrons
 Requested basis set is 6-311++G(d,p)
 There are 32 shells and 72 basis functions

 Total QAlloc Memory Limit   2000 MB
 Mega-Array Size       188 MB
 MEM_STATIC part       192 MB

finished with qalloc call

                       Distance Matrix (Angstroms)
             O (  1)   H (  2)   C (  3)   H (  4)   H (  5)
   H (  2)  0.959705
   C (  3)  1.424182  1.955773
   H (  4)  2.021968  2.822499  1.085113
   H (  5)  2.089338  2.352004  1.089404  1.766044
   H (  6)  2.089340  2.351995  1.089404  1.766043  1.777963

 Job number = 2, Threshold = 1.00E-08
Integral type ranges set in mkLRange.C for JobNum: 2  <1-21|1-21>
Symmetry turned off temporarily
 Using the largest function pair in Schwarz integrals
Total number of integrals generated =           34749
Symmetry turned back on
 A cutoff of  1.0D-08 yielded    528 shell pairs
 There are      2708 function pairs (      2865 Cartesian)
 Job number = 11, Threshold = 1.00E-08
Integral type ranges set in mkLRange.C for JobNum: 11  <1-21|22-22>
Total number of integrals generated =           17190
 Smallest overlap matrix eigenvalue = 1.06E-03
 Multipole matrices computed through 2nd order

 Scale SEOQF with 1.000000e-01/1.000000e-01/1.000000e-01

 Standard Electronic Orientation quadrupole field applied
 Nucleus-field energy     =     0.0000000004 hartrees
 ENuRep (before)= 40.3052471889
 ENucField = 0.0000000004
 ENuRep (after) = 40.3052471893
 Guess from superposition of atomic densities
 Warning:  Energy on first SCF cycle will be non-variational
 SAD guess density has 18.000000 electrons

 ==================================================
    GEN_SCFMAN: A general SCF calculation manager  
                                                   
    Authors:                                       
        -- Eric Jon Sundstrom 2008-2014            
        -- Paul Horn 2010-2015                     
        -- Yuezhi Mao 2012-                        
        -- Dmitri Zuev 2014                        
        -- Alec White 2015-                        
        -- David Stuck 2015                        
        -- Shaama M.S. 2015                        
        -- Shane Yost 2015-                         
        -- Joonho Lee 2016-                        
        -- David Small 2016-                       
        -- Daniel Levine 2016-                     
        -- Susi Lehtola 2017-                      
        -- Hugh Burton 2017-                       
 ==================================================
 Hartree-Fock
Finding J and K together
 Job number = 22, Threshold = 1.00E-08
Integral type ranges set in mkLRange.C for JobNum: 22  <1-21|1-21>
 MakeJK  time:  CPU       0.45 s  wall       0.49 s
 HF Exchange:              -14.65232466559931
 One-Electron:             -234.87722914585990
 Total Coulomb:             93.92511999489194
 Nuclear repulsion:         40.30524718933309
 A restricted SCF calculation will be
 performed using DIIS
 SCF converges when DIIS error is below 1.0e-05
 ---------------------------------------
  Cycle       Energy         DIIS error
 ---------------------------------------
Finding J and K together
 Job number = 22, Threshold = 1.00E-08
Integral type ranges set in mkLRange.C for JobNum: 22  <1-21|1-21>
 MakeJK  time:  CPU       0.88 s  wall       0.93 s
 HF Exchange:              -14.88382906112850
 One-Electron:             -237.31025734306988
 Total Coulomb:             96.84521707653379
 Nuclear repulsion:         40.30524718933309
    1    -115.2991866272      6.98e-02  
Finding J and K together
 Job number = 22, Threshold = 1.00E-08
Integral type ranges set in mkLRange.C for JobNum: 22  <1-21|1-21>
 MakeJK  time:  CPU       0.87 s  wall       0.92 s
 HF Exchange:              -14.77722230122502
 One-Electron:             -236.32033754682737
 Total Coulomb:             95.72049229731489
 Nuclear repulsion:         40.30524718933309
    2    -115.0436221383      7.78e-03  
Finding J and K together
 Job number = 22, Threshold = 1.00E-08
Integral type ranges set in mkLRange.C for JobNum: 22  <1-21|1-21>
 MakeJK  time:  CPU       0.89 s  wall       0.95 s
 HF Exchange:              -14.85797036299010
 One-Electron:             -236.89034720100682
 Total Coulomb:             96.36383584305230
 Nuclear repulsion:         40.30524718933309
    3    -115.0718203614      4.19e-03  
Finding J and K together
 Job number = 22, Threshold = 1.00E-08
Integral type ranges set in mkLRange.C for JobNum: 22  <1-21|1-21>
 MakeJK  time:  CPU       0.89 s  wall       1.01 s
 HF Exchange:              -14.85062607977538
 One-Electron:             -236.79462164037892
 Total Coulomb:             96.26035036023423
 Nuclear repulsion:         40.30524718933309
    4    -115.0792345316      7.88e-04  
Finding J and K together
 Job number = 22, Threshold = 1.00E-08
Integral type ranges set in mkLRange.C for JobNum: 22  <1-21|1-21>
 MakeJK  time:  CPU       0.89 s  wall       0.97 s
 HF Exchange:              -14.85327795831841
 One-Electron:             -236.80997464578260
 Total Coulomb:             96.27833660888791
 Nuclear repulsion:         40.30524718933309
    5    -115.0796501706      1.34e-04  
Finding J and K together
 Job number = 22, Threshold = 1.00E-08
Integral type ranges set in mkLRange.C for JobNum: 22  <1-21|1-21>
 MakeJK  time:  CPU       0.88 s  wall       0.94 s
 HF Exchange:              -14.85300145282656
 One-Electron:             -236.80539940694277
 Total Coulomb:             96.27348382770225
 Nuclear repulsion:         40.30524718933309
    6    -115.0796688059      2.91e-05  
    7    -115.0796698427      9.35e-06  Convergence criterion met
 ---------------------------------------
 SCF time:   CPU 5.87s  wall 6.00s 
 Total energy in the final basis set =     -115.0796698427
 HF Exchange:              -14.85300145282656
 One-Electron:             -236.80539940694277
 Total Coulomb:             96.27348382770225
 Nuclear repulsion:         40.30524718933309
Wall  1 = 6
Clock 1 = 5.89607095718384
 ==================================================
                  Done GEN_SCFMAN                  
 ==================================================

Symmetry turned off temporarily

 --------------------------------------------------------------

                    Orbital Energies (a.u.)
 --------------------------------------------------------------

 Alpha MOs
 -- Occupied --
-20.557 -11.273  -1.357  -0.929  -0.692  -0.622  -0.594  -0.505
 -0.453
 -- Virtual --
  0.039   0.064   0.073   0.081   0.127   0.146   0.159   0.183
  0.280   0.289   0.297   0.298   0.310   0.330   0.352   0.394
  0.477   0.564   0.578   0.712   0.774   0.847   0.854   0.877
  1.068   1.190   1.235   1.290   1.376   1.452   1.624   1.681
  1.712   1.794   1.804   1.817   1.962   1.966   2.077   2.296
  2.343   2.421   2.518   2.712   2.763   2.786   2.856   2.860
  2.987   3.200   3.341   3.465   3.597   3.681   4.138   4.195
  4.333   4.441   5.567   5.909   6.214  25.078  51.600
 --------------------------------------------------------------

          Ground-State Mulliken Net Atomic Charges

     Atom                 Charge (a.u.)
  ----------------------------------------
      1 O                    -0.390193
      2 H                     0.257124
      3 C                    -0.210106
      4 H                     0.133207
      5 H                     0.104984
      6 H                     0.104983
  ----------------------------------------
  Sum of atomic charges =     0.000000

 -----------------------------------------------------------------
                    Cartesian Multipole Moments
 -----------------------------------------------------------------
    Charge (ESU x 10^10)
                 0.0000
    Dipole Moment (Debye)
         X      -1.0878      Y       1.7032      Z      -0.0000
       Tot       2.0209
    Quadrupole Moments (Debye-Ang)
        XX     -12.9859     XY       2.4506     YY     -12.1628
        XZ       0.0000     YZ       0.0000     ZZ     -13.7410
    Octopole Moments (Debye-Ang^2)
       XXX       3.8270    XXY       2.6478    XYY       1.6523
       YYY       0.7830    XXZ      -0.0000    XYZ      -0.0000
       YYZ      -0.0000    XZZ       0.1465    YZZ       0.7807
       ZZZ       0.0000
    Hexadecapole Moments (Debye-Ang^3)
      XXXX     -61.8142   XXXY       4.3532   XXYY     -12.5517
      XYYY       3.2860   YYYY     -19.7614   XXXZ       0.0000
      XXYZ       0.0000   XYYZ       0.0000   YYYZ       0.0000
      XXZZ     -14.4096   XYZZ      -0.0633   YYZZ      -6.7308
      XZZZ      -0.0000   YZZZ       0.0000   ZZZZ     -19.6637
 -----------------------------------------------------------------
 Mayer SCF Bond Order, atomic valence on the diagonal:

            1           2           3           4           5           6
    1   1.7117536   0.9446965   0.8710312  -0.0486668  -0.0276537  -0.0276536
    2   0.9446965   0.9573778   0.0115137   0.0058212  -0.0023268  -0.0023267
    3   0.8710312   0.0115137   3.8542720   0.9996955   0.9860158   0.9860159
    4  -0.0486668   0.0058212   0.9996955   0.9169704  -0.0199397  -0.0199397
    5  -0.0276537  -0.0023268   0.9860158  -0.0199397   0.9151931  -0.0209025
    6  -0.0276536  -0.0023267   0.9860159  -0.0199397  -0.0209025   0.9151934


 JobOver = TRUE
Archival summary:
1\1\qciep03\SP\HF\BasisUnspecified\114\jcartus\ThuFeb112:09:522018ThuFeb112:09:522018\0\\#,HF,BasisUnspecified,\\0,1\O\H,1,0.959705\C,1,1.42418,2,108.684\H,3,1.08511,1,106.592,2,179.999,0\H,3,1.0894,1,111.758,2,61.4754,0\H,3,1.0894,1,111.758,2,-61.4771,0\\HF=-115.07967\\@

 Total job time:  6.58s(wall), 6.06s(cpu) 
 Thu Feb  1 12:09:52 2018

        *************************************************************
        *                                                           *
        *  Thank you very much for using Q-Chem.  Have a nice day.  *
        *                                                           *
        *************************************************************


*** MISSION COMPLETED -- STARFLEET OUT ***

0 sent ACK to 0 
now end server 0 ... 
