Process 0 of 1 is on qciep03 - thread support 0
initial socket setup ...start
initial socket setup ...done 
now start server 0 ... 
qciep03.tugraz.at 127.0.1
Q-Chem Developer Version! Running on 127.0.1.*
                  Welcome to Q-Chem
     A Quantum Leap Into The Future Of Chemistry


 Q-Chem 5.0, Q-Chem, Inc., Pleasanton, CA (2017)

 Yihan Shao,  Zhengting Gan,  E. Epifanovsky,  A. T. B. Gilbert,  M. Wormit,  
 J. Kussmann,  A. W. Lange,  A. Behn,  Jia Deng,  Xintian Feng,  D. Ghosh,  
 M. Goldey,  P. R. Horn,  L. D. Jacobson,  I. Kaliman,  T. Kus,  A. Landau,  
 Jie Liu,  E. I. Proynov,  R. M. Richard,  R. P. Steele,  E. J. Sundstrom,  
 H. L. Woodcock III,  P. M. Zimmerman,  D. Zuev,  B. Albrecht,  E. Alguire,  
 S. A. Baeppler,  D. Barton,  Z. Benda,  Y. A. Bernard,  E. J. Berquist,  
 K. B. Bravaya,  H. Burton,  D. Casanova,  Chun-Min Chang,  Yunqing Chen,  
 A. Chien,  K. D. Closser,  M. P. Coons,  S. Dasgupta,  A. L. Dempwolff,  
 M. Diedenhofen,  Hainam Do,  R. G. Edgar,  Po-Tung Fang,  S. Fatehi,  
 Qingguo Feng,  J. Fosso-Tande,  Qinghui Ge,  A. Ghysels,  G. Gidofalvi,  
 J. Gomes,  J. Gonthier,  A. Gunina,  M. W. D. Hanson-Heine,  
 P. H. P. Harbach,  A. W. Hauser,  J. E. Herr,  E. G. Hohenstein,  
 Z. C. Holden,  Kerwin Hui,  T.-C. Jagau,  Hyunjun Ji,  B. Kaduk,  
 K. Khistyaev,  Jaehoon Kim,  P. Klunzinger,  K. Koh,  D. Kosenkov,  
 L. Koulias,  T. Kowalczyk,  C. M. Krauter,  A. Kunitsa,  Ka Un Lao,  
 A. Laurent,  K. V. Lawler,  Joonho Lee,  D. Lefrancois,  S. Lehtola,  
 D. S. Levine,  Yi-Pei Li,  You-Sheng Lin,  Fenglai Liu,  E. Livshits,  
 A. Luenser,  P. Manohar,  E. Mansoor,  S. F. Manzer,  Shan-Ping Mao,  
 Yuezhi Mao,  N. Mardirossian,  A. V. Marenich,  T. Markovich,  
 L. A. Martinez-Martinez,  S. A. Maurer,  N. J. Mayhall,  S. C. McKenzie,  
 J.-M. Mewes,  A. F. Morrison,  J. W. Mullinax,  K. Nanda,  
 T. S. Nguyen-Beck,  R. Olivares-Amaya,  J. A. Parkhill,  T. M. Perrine,  
 F. Plasser,  S. Prager,  A. Prociuk,  E. Ramos,  D. R. Rehn,  F. Rob,  
 M. Schneider,  N. Sergueev,  S. M. Sharada,  S. Sharma,  D. W. Small,  
 T. Stauch,  T. Stein,  Yu-Chuan Su,  A. J. W. Thom,  A. Tkatchenko,  
 T. Tsuchimochi,  L. Vogt,  O. Vydrov,  M. A. Watson,  J. Wenzel,  
 M. de Wergifosse,  T. A. Wesolowski,  A. White,  J. Witte,  A. Yamada,  
 Jun Yang,  K. Yao,  S. Yeganeh,  S. R. Yost,  Zhi-Qiang You,  A. Zech,  
 Igor Ying Zhang,  Xing Zhang,  Yan Zhao,  Ying Zhu,  B. R. Brooks,  
 G. K. L. Chan,  C. J. Cramer,  M. S. Gordon,  W. J. Hehre,  A. Klamt,  
 M. W. Schmidt,  C. D. Sherrill,  D. G. Truhlar,  A. Aspuru-Guzik,  R. Baer,  
 A. T. Bell,  N. A. Besley,  Jeng-Da Chai,  R. A. DiStasio Jr.,  A. Dreuw,  
 B. D. Dunietz,  T. R. Furlani,  Chao-Ping Hsu,  Yousung Jung,  Jing Kong,  
 D. S. Lambrecht,  WanZhen Liang,  C. Ochsenfeld,  V. A. Rassolov,  
 L. V. Slipchenko,  J. E. Subotnik,  T. Van Voorhis,  J. M. Herbert,  
 A. I. Krylov,  P. M. W. Gill,  M. Head-Gordon

 Contributors to earlier versions of Q-Chem not listed above: 
 R. D. Adamson,  B. Austin,  J. Baker,  G. J. O. Beran,  K. Brandhorst,  
 S. T. Brown,  E. F. C. Byrd,  A. K. Chakraborty,  C.-L. Cheng,  
 Siu Hung Chien,  D. M. Chipman,  D. L. Crittenden,  H. Dachsel,  
 R. J. Doerksen,  A. D. Dutoi,  L. Fusti-Molnar,  W. A. Goddard III,  
 A. Golubeva-Zadorozhnaya,  S. R. Gwaltney,  G. Hawkins,  A. Heyden,  
 S. Hirata,  G. Kedziora,  F. J. Keil,  C. Kelley,  Jihan Kim,  R. A. King,  
 R. Z. Khaliullin,  P. P. Korambath,  W. Kurlancheek,  A. M. Lee,  M. S. Lee,  
 S. V. Levchenko,  Ching Yeh Lin,  D. Liotard,  R. C. Lochan,  I. Lotan,  
 P. E. Maslen,  N. Nair,  D. P. O'Neill,  D. Neuhauser,  E. Neuscamman,  
 C. M. Oana,  R. Olson,  B. Peters,  R. Peverati,  P. A. Pieniazek,  
 Y. M. Rhee,  J. Ritchie,  M. A. Rohrdanz,  E. Rosta,  N. J. Russ,  
 H. F. Schaefer III,  N. E. Schultz,  N. Shenvi,  A. C. Simmonett,  A. Sodt,  
 D. Stuck,  K. S. Thanthiriwatte,  V. Vanovschi,  Tao Wang,  A. Warshel,  
 C. F. Williams,  Q. Wu,  X. Xu,  W. Zhang

 Please cite Q-Chem as follows:
 Y. Shao et al., Mol. Phys. 113, 184-215 (2015)
 DOI: 10.1080/00268976.2014.952696

 Q-Chem 5.0.2 for Intel X86 EM64T Linux

 Parts of Q-Chem use Armadillo 5.200.1 (Boston Tea Smuggler).
 http://arma.sourceforge.net/

 Q-Chem begins on Thu Feb  1 11:53:27 2018  


Host: 0

     Scratch files written to /home/jcartus/scratch/40_methanol-chloromethane_mono2.dir//
 Using version located at /usr/local/qchem/bin/qchem

 Parallel job on  1  processors

Total Memory Limit in MB = 2000
Mega-Array Size in MB = 192

Checking the input file for inconsistencies... 	...done.
Finally everything over in PARseQInput

--------------------------------------------------------------
User input:
--------------------------------------------------------------
$rem
SCF_PRINT                     1
BASIS                         6-311++g**
SCF_SAVE_MATRICES             1
SCF_CONVERGENCE               5
SCF_FINAL_PRINT               1
METHOD                        hf
JOBTYPE                       sp
$end

$molecule
0 1
Cl    1.5347557    -2.78e-07    -3.014973713
C    -0.250343184    1.1724e-05    -3.026056648
H    -0.580143384    1.8132e-05    -4.057685667
H    -0.592367277    -0.887056056    -2.508114642
H    -0.592357482    0.887077343    -2.508105102
$end


--------------------------------------------------------------
 ----------------------------------------------------------------
             Standard Nuclear Orientation (Angstroms)
    I     Atom           X                Y                Z
 ----------------------------------------------------------------
    1      Cl      0.6569228721    -0.0001959199     0.0000000299
    2      C      -1.1282096666     0.0014400431     0.0000002434
    3      H      -1.4634646717     1.0313092996     0.0000290257
    4      H      -1.4674821225    -0.5182835305    -0.8870821969
    5      H      -1.4674840318    -0.5183353887     0.8870512014
 ----------------------------------------------------------------
 Molecular Point Group                 C1    NOp =  1
 Largest Abelian Subgroup              C1    NOp =  1
 Nuclear Repulsion Energy =    51.3640343314 hartrees
 There are       13 alpha and       13 beta electrons
 Requested basis set is 6-311++G(d,p)
 There are 34 shells and 73 basis functions

 Total QAlloc Memory Limit   2000 MB
 Mega-Array Size       188 MB
 MEM_STATIC part       192 MB

finished with qalloc call

                       Distance Matrix (Angstroms)
             Cl(  1)   C (  2)   H (  3)   H (  4)
   C (  2)  1.785133
   H (  3)  2.357975  1.083064
   H (  4)  2.359751  1.082651  1.785559
   H (  5)  2.359753  1.082651  1.785560  1.774133

 Job number = 2, Threshold = 1.00E-08
Integral type ranges set in mkLRange.C for JobNum: 2  <1-21|1-21>
Symmetry turned off temporarily
 Using the largest function pair in Schwarz integrals
Total number of integrals generated =           31783
Symmetry turned back on
 A cutoff of  1.0D-08 yielded    584 shell pairs
 There are      2764 function pairs (      2923 Cartesian)
 Job number = 11, Threshold = 1.00E-08
Integral type ranges set in mkLRange.C for JobNum: 11  <1-21|22-22>
Total number of integrals generated =           14570
 Smallest overlap matrix eigenvalue = 4.69E-04
 Multipole matrices computed through 2nd order

 Scale SEOQF with 1.000000e-01/1.000000e-01/1.000000e-01

 Standard Electronic Orientation quadrupole field applied
 Nucleus-field energy     =     0.0000000007 hartrees
 ENuRep (before)= 51.3640343314
 ENucField = 0.0000000007
 ENuRep (after) = 51.3640343321
 Guess from superposition of atomic densities
 Warning:  Energy on first SCF cycle will be non-variational
 SAD guess density has 26.000000 electrons

 ==================================================
    GEN_SCFMAN: A general SCF calculation manager  
                                                   
    Authors:                                       
        -- Eric Jon Sundstrom 2008-2014            
        -- Paul Horn 2010-2015                     
        -- Yuezhi Mao 2012-                        
        -- Dmitri Zuev 2014                        
        -- Alec White 2015-                        
        -- David Stuck 2015                        
        -- Shaama M.S. 2015                        
        -- Shane Yost 2015-                         
        -- Joonho Lee 2016-                        
        -- David Small 2016-                       
        -- Daniel Levine 2016-                     
        -- Susi Lehtola 2017-                      
        -- Hugh Burton 2017-                       
 ==================================================
 Hartree-Fock
Finding J and K together
 Job number = 22, Threshold = 1.00E-08
Integral type ranges set in mkLRange.C for JobNum: 22  <1-21|1-21>
 MakeJK  time:  CPU       0.66 s  wall       0.71 s
 HF Exchange:              -33.73646373355059
 One-Electron:             -788.49334467148753
 Total Coulomb:            271.49191745811459
 Nuclear repulsion:         51.36403433211926
 A restricted SCF calculation will be
 performed using DIIS
 SCF converges when DIIS error is below 1.0e-05
 ---------------------------------------
  Cycle       Energy         DIIS error
 ---------------------------------------
Finding J and K together
 Job number = 22, Threshold = 1.00E-08
Integral type ranges set in mkLRange.C for JobNum: 22  <1-21|1-21>
 MakeJK  time:  CPU       1.14 s  wall       1.15 s
 HF Exchange:              -33.76834092713155
 One-Electron:             -790.18445218238901
 Total Coulomb:            273.47908404459889
 Nuclear repulsion:         51.36403433211926
    1    -499.3738566148      5.82e-02  
Finding J and K together
 Job number = 22, Threshold = 1.00E-08
Integral type ranges set in mkLRange.C for JobNum: 22  <1-21|1-21>
 MakeJK  time:  CPU       1.14 s  wall       1.26 s
 HF Exchange:              -33.80200159724594
 One-Electron:             -790.12344593161288
 Total Coulomb:            273.43244974750922
 Nuclear repulsion:         51.36403433211926
    2    -499.1096747328      4.99e-03  
Finding J and K together
 Job number = 22, Threshold = 1.00E-08
Integral type ranges set in mkLRange.C for JobNum: 22  <1-21|1-21>
 MakeJK  time:  CPU       1.15 s  wall       1.15 s
 HF Exchange:              -33.80503462605650
 One-Electron:             -790.13923890669832
 Total Coulomb:            273.44798199656998
 Nuclear repulsion:         51.36403433211926
    3    -499.1289634492      2.28e-03  
Finding J and K together
 Job number = 22, Threshold = 1.00E-08
Integral type ranges set in mkLRange.C for JobNum: 22  <1-21|1-21>
 MakeJK  time:  CPU       1.04 s  wall       1.10 s
 HF Exchange:              -33.81067886800093
 One-Electron:             -790.15282637067071
 Total Coulomb:            273.46692138844543
 Nuclear repulsion:         51.36403433211926
    4    -499.1322572041      5.01e-04  
Finding J and K together
 Job number = 22, Threshold = 1.00E-08
Integral type ranges set in mkLRange.C for JobNum: 22  <1-21|1-21>
 MakeJK  time:  CPU       0.72 s  wall       0.72 s
 HF Exchange:              -33.81054989509954
 One-Electron:             -790.14323827039766
 Total Coulomb:            273.45719279664934
 Nuclear repulsion:         51.36403433211926
    5    -499.1325495181      8.13e-05  
Finding J and K together
 Job number = 22, Threshold = 1.00E-08
Integral type ranges set in mkLRange.C for JobNum: 22  <1-21|1-21>
 MakeJK  time:  CPU       0.90 s  wall       0.90 s
 HF Exchange:              -33.81077437388981
 One-Electron:             -790.14487824288494
 Total Coulomb:            273.45905641449878
 Nuclear repulsion:         51.36403433211926
    6    -499.1325610367      2.15e-05  
    7    -499.1325618702      6.22e-06  Convergence criterion met
 ---------------------------------------
 SCF time:   CPU 6.85s  wall 7.00s 
 Total energy in the final basis set =     -499.1325618702
 HF Exchange:              -33.81077437388981
 One-Electron:             -790.14487824288494
 Total Coulomb:            273.45905641449878
 Nuclear repulsion:         51.36403433211926
Wall  1 = 7
Clock 1 = 6.87285614013672
 ==================================================
                  Done GEN_SCFMAN                  
 ==================================================

Symmetry turned off temporarily

 --------------------------------------------------------------

                    Orbital Energies (a.u.)
 --------------------------------------------------------------

 Alpha MOs
 -- Occupied --
******* -11.293 -10.550  -8.018  -8.015  -8.015  -1.130  -0.918
 -0.623  -0.621  -0.546  -0.436  -0.436
 -- Virtual --
  0.038   0.071   0.071   0.087   0.140   0.153   0.154   0.156
  0.157   0.175   0.238   0.260   0.282   0.282   0.362   0.536
  0.537   0.551   0.622   0.622   0.683   0.832   0.832   0.862
  1.024   1.064   1.064   1.145   1.163   1.163   1.400   1.402
  1.417   1.681   1.779   1.782   1.985   1.986   1.988   2.243
  2.428   2.432   2.689   2.690   2.755   2.777   2.787   2.790
  2.878   2.882   3.203   3.613   4.115   4.127  10.422  25.022
 26.737  26.738  27.170 219.274
 --------------------------------------------------------------

          Ground-State Mulliken Net Atomic Charges

     Atom                 Charge (a.u.)
  ----------------------------------------
      1 Cl                    0.024030
      2 C                    -0.520817
      3 H                     0.164951
      4 H                     0.165918
      5 H                     0.165918
  ----------------------------------------
  Sum of atomic charges =     0.000000

 -----------------------------------------------------------------
                    Cartesian Multipole Moments
 -----------------------------------------------------------------
    Charge (ESU x 10^10)
                 0.0000
    Dipole Moment (Debye)
         X      -2.2755      Y      -0.0026      Z      -0.0000
       Tot       2.2755
    Quadrupole Moments (Debye-Ang)
        XX     -18.3729     XY       0.0115     YY     -20.0869
        XZ      -0.0000     YZ      -0.0000     ZZ     -20.1335
    Octopole Moments (Debye-Ang^2)
       XXX       1.2883    XXY      -0.0297    XYY      -1.3147
       YYY       0.7999    XXZ       0.0000    XYZ       0.0000
       YYZ       0.0001    XZZ      -1.2518    YZZ      -0.8014
       ZZZ      -0.0001
    Hexadecapole Moments (Debye-Ang^3)
      XXXX    -116.5310   XXXY       0.0618   XXYY     -24.4074
      XYYY      -1.1876   YYYY     -28.9931   XXXZ      -0.0000
      XXYZ      -0.0000   XYYZ      -0.0001   YYYZ      -0.0000
      XXZZ     -24.4804   XYZZ       1.2054   YYZZ      -9.6564
      XZZZ       0.0001   YZZZ       0.0000   ZZZZ     -28.9916
 -----------------------------------------------------------------
 Mayer SCF Bond Order, atomic valence on the diagonal:

            1           2           3           4           5
    1   0.8553301   0.8986913  -0.0141963  -0.0145825  -0.0145823
    2   0.8986913   3.7825058   0.9621835   0.9608156   0.9608154
    3  -0.0141963   0.9621835   0.9006488  -0.0236692  -0.0236692
    4  -0.0145825   0.9608156  -0.0236692   0.8982936  -0.0242702
    5  -0.0145823   0.9608154  -0.0236692  -0.0242702   0.8982938


 JobOver = TRUE
Archival summary:
1\1\qciep03\SP\HF\BasisUnspecified\l113\jcartus\ThuFeb111:53:352018ThuFeb111:53:352018\0\\#,HF,BasisUnspecified,\\0,1\Cl\C,1,1.78513\H,2,1.08265,1,108.236\H,2,1.08265,1,108.236,3,-119.236,0\H,2,1.08306,1,108.084,3,120.382,0\\HF=-499.132562\\@

 Total job time:  7.34s(wall), 7.05s(cpu) 
 Thu Feb  1 11:53:35 2018

        *************************************************************
        *                                                           *
        *  Thank you very much for using Q-Chem.  Have a nice day.  *
        *                                                           *
        *************************************************************


*** MISSION COMPLETED -- STARFLEET OUT ***

0 sent ACK to 0 
now end server 0 ... 
