Process 0 of 1 is on qciep03 - thread support 0
initial socket setup ...start
initial socket setup ...done 
now start server 0 ... 
qciep03.tugraz.at 127.0.1
Q-Chem Developer Version! Running on 127.0.1.*
                  Welcome to Q-Chem
     A Quantum Leap Into The Future Of Chemistry


 Q-Chem 5.0, Q-Chem, Inc., Pleasanton, CA (2017)

 Yihan Shao,  Zhengting Gan,  E. Epifanovsky,  A. T. B. Gilbert,  M. Wormit,  
 J. Kussmann,  A. W. Lange,  A. Behn,  Jia Deng,  Xintian Feng,  D. Ghosh,  
 M. Goldey,  P. R. Horn,  L. D. Jacobson,  I. Kaliman,  T. Kus,  A. Landau,  
 Jie Liu,  E. I. Proynov,  R. M. Richard,  R. P. Steele,  E. J. Sundstrom,  
 H. L. Woodcock III,  P. M. Zimmerman,  D. Zuev,  B. Albrecht,  E. Alguire,  
 S. A. Baeppler,  D. Barton,  Z. Benda,  Y. A. Bernard,  E. J. Berquist,  
 K. B. Bravaya,  H. Burton,  D. Casanova,  Chun-Min Chang,  Yunqing Chen,  
 A. Chien,  K. D. Closser,  M. P. Coons,  S. Dasgupta,  A. L. Dempwolff,  
 M. Diedenhofen,  Hainam Do,  R. G. Edgar,  Po-Tung Fang,  S. Fatehi,  
 Qingguo Feng,  J. Fosso-Tande,  Qinghui Ge,  A. Ghysels,  G. Gidofalvi,  
 J. Gomes,  J. Gonthier,  A. Gunina,  M. W. D. Hanson-Heine,  
 P. H. P. Harbach,  A. W. Hauser,  J. E. Herr,  E. G. Hohenstein,  
 Z. C. Holden,  Kerwin Hui,  T.-C. Jagau,  Hyunjun Ji,  B. Kaduk,  
 K. Khistyaev,  Jaehoon Kim,  P. Klunzinger,  K. Koh,  D. Kosenkov,  
 L. Koulias,  T. Kowalczyk,  C. M. Krauter,  A. Kunitsa,  Ka Un Lao,  
 A. Laurent,  K. V. Lawler,  Joonho Lee,  D. Lefrancois,  S. Lehtola,  
 D. S. Levine,  Yi-Pei Li,  You-Sheng Lin,  Fenglai Liu,  E. Livshits,  
 A. Luenser,  P. Manohar,  E. Mansoor,  S. F. Manzer,  Shan-Ping Mao,  
 Yuezhi Mao,  N. Mardirossian,  A. V. Marenich,  T. Markovich,  
 L. A. Martinez-Martinez,  S. A. Maurer,  N. J. Mayhall,  S. C. McKenzie,  
 J.-M. Mewes,  A. F. Morrison,  J. W. Mullinax,  K. Nanda,  
 T. S. Nguyen-Beck,  R. Olivares-Amaya,  J. A. Parkhill,  T. M. Perrine,  
 F. Plasser,  S. Prager,  A. Prociuk,  E. Ramos,  D. R. Rehn,  F. Rob,  
 M. Schneider,  N. Sergueev,  S. M. Sharada,  S. Sharma,  D. W. Small,  
 T. Stauch,  T. Stein,  Yu-Chuan Su,  A. J. W. Thom,  A. Tkatchenko,  
 T. Tsuchimochi,  L. Vogt,  O. Vydrov,  M. A. Watson,  J. Wenzel,  
 M. de Wergifosse,  T. A. Wesolowski,  A. White,  J. Witte,  A. Yamada,  
 Jun Yang,  K. Yao,  S. Yeganeh,  S. R. Yost,  Zhi-Qiang You,  A. Zech,  
 Igor Ying Zhang,  Xing Zhang,  Yan Zhao,  Ying Zhu,  B. R. Brooks,  
 G. K. L. Chan,  C. J. Cramer,  M. S. Gordon,  W. J. Hehre,  A. Klamt,  
 M. W. Schmidt,  C. D. Sherrill,  D. G. Truhlar,  A. Aspuru-Guzik,  R. Baer,  
 A. T. Bell,  N. A. Besley,  Jeng-Da Chai,  R. A. DiStasio Jr.,  A. Dreuw,  
 B. D. Dunietz,  T. R. Furlani,  Chao-Ping Hsu,  Yousung Jung,  Jing Kong,  
 D. S. Lambrecht,  WanZhen Liang,  C. Ochsenfeld,  V. A. Rassolov,  
 L. V. Slipchenko,  J. E. Subotnik,  T. Van Voorhis,  J. M. Herbert,  
 A. I. Krylov,  P. M. W. Gill,  M. Head-Gordon

 Contributors to earlier versions of Q-Chem not listed above: 
 R. D. Adamson,  B. Austin,  J. Baker,  G. J. O. Beran,  K. Brandhorst,  
 S. T. Brown,  E. F. C. Byrd,  A. K. Chakraborty,  C.-L. Cheng,  
 Siu Hung Chien,  D. M. Chipman,  D. L. Crittenden,  H. Dachsel,  
 R. J. Doerksen,  A. D. Dutoi,  L. Fusti-Molnar,  W. A. Goddard III,  
 A. Golubeva-Zadorozhnaya,  S. R. Gwaltney,  G. Hawkins,  A. Heyden,  
 S. Hirata,  G. Kedziora,  F. J. Keil,  C. Kelley,  Jihan Kim,  R. A. King,  
 R. Z. Khaliullin,  P. P. Korambath,  W. Kurlancheek,  A. M. Lee,  M. S. Lee,  
 S. V. Levchenko,  Ching Yeh Lin,  D. Liotard,  R. C. Lochan,  I. Lotan,  
 P. E. Maslen,  N. Nair,  D. P. O'Neill,  D. Neuhauser,  E. Neuscamman,  
 C. M. Oana,  R. Olson,  B. Peters,  R. Peverati,  P. A. Pieniazek,  
 Y. M. Rhee,  J. Ritchie,  M. A. Rohrdanz,  E. Rosta,  N. J. Russ,  
 H. F. Schaefer III,  N. E. Schultz,  N. Shenvi,  A. C. Simmonett,  A. Sodt,  
 D. Stuck,  K. S. Thanthiriwatte,  V. Vanovschi,  Tao Wang,  A. Warshel,  
 C. F. Williams,  Q. Wu,  X. Xu,  W. Zhang

 Please cite Q-Chem as follows:
 Y. Shao et al., Mol. Phys. 113, 184-215 (2015)
 DOI: 10.1080/00268976.2014.952696

 Q-Chem 5.0.2 for Intel X86 EM64T Linux

 Parts of Q-Chem use Armadillo 5.200.1 (Boston Tea Smuggler).
 http://arma.sourceforge.net/

 Q-Chem begins on Thu Jan 25 17:48:24 2018  


Host: 0

     Scratch files written to /home/jcartus/scratch/Phenol-dimer_mono2.dir//
 Using version located at /usr/local/qchem/bin/qchem

 Parallel job on  1  processors

Total Memory Limit in MB = 2000
Mega-Array Size in MB = 192

Checking the input file for inconsistencies... 	...done.
Finally everything over in PARseQInput

--------------------------------------------------------------
User input:
--------------------------------------------------------------
$rem
SCF_PRINT                     1
BASIS                         6-311++g**
SCF_SAVE_MATRICES             1
SCF_CONVERGENCE               5
SCF_FINAL_PRINT               1
METHOD                        hf
JOBTYPE                       sp
$end

$molecule
0 1
C    -2.0071056    0.7638459    -0.1083509
O    -1.3885044    1.9298523    -0.4431206
H    -0.5238121    1.9646519    -0.0064609
C    -1.4630807    -0.151912    0.794993
C    -2.1475789    -1.3295094    1.0883677
C    -3.3743208    -1.6031427    0.4895864
C    -3.9143727    -0.6838545    -0.4091028
C    -3.2370496    0.4929609    -0.7096126
H    -0.510651    0.0566569    1.2642563
H    -1.7151135    -2.0321452    1.7878417
H    -3.9024664    -2.5173865    0.7197947
H    -4.867073    -0.8822939    -0.8811319
H    -3.6431662    1.2134345    -1.405759
$end


--------------------------------------------------------------
 ----------------------------------------------------------------
             Standard Nuclear Orientation (Angstroms)
    I     Atom           X                Y                Z
 ----------------------------------------------------------------
    1      C       0.9430898996     0.0233749359     0.0037918507
    2      O       2.3018557039     0.1131709873     0.0026606102
    3      H       2.6766937070    -0.7787280208    -0.0572402251
    4      C       0.2629741388    -1.1964806059     0.0047050992
    5      C      -1.1302056723    -1.2157524907     0.0001503940
    6      C      -1.8545653380    -0.0268026215    -0.0031963452
    7      C      -1.1704380112     1.1882501877    -0.0008301003
    8      C       0.2199349401     1.2169818653     0.0013503484
    9      H       0.8212090119    -2.1234047793     0.0087999013
   10      H      -1.6457715076    -2.1666345667    -0.0014030285
   11      H      -2.9350322909    -0.0456730811    -0.0064261177
   12      H      -1.7197366217     2.1199672725    -0.0021861335
   13      H       0.7630523285     2.1516776520     0.0013432413
 ----------------------------------------------------------------
 Molecular Point Group                 C1    NOp =  1
 Largest Abelian Subgroup              C1    NOp =  1
 Nuclear Repulsion Energy =   271.4387017095 hartrees
 There are       25 alpha and       25 beta electrons
 Requested basis set is 6-311++G(d,p)
 There are 72 shells and 196 basis functions

 Total QAlloc Memory Limit   2000 MB
 Mega-Array Size       188 MB
 MEM_STATIC part       192 MB

finished with qalloc call

                       Distance Matrix (Angstroms)
             C (  1)   O (  2)   H (  3)   C (  4)   C (  5)   C (  6)
   O (  2)  1.361730
   H (  3)  1.911145  0.969317
   C (  4)  1.396641  2.423268  2.450387
   C (  5)  2.415368  3.680365  3.832332  1.393321
   C (  6)  2.798114  4.158781  4.593541  2.419128  1.392232
   C (  7)  2.413287  3.634918  4.321181  2.782381  2.404340  1.394414
   C (  8)  1.395585  2.356437  3.165747  2.413849  2.782279  2.418796
   H (  9)  2.150243  2.682280  2.292453  1.082050  2.152191  3.399361
   H ( 10)  3.390925  4.558650  4.540166  2.141155  1.081659  2.149995
   H ( 11)  3.878750  5.239304  5.659631  3.398783  2.150937  1.080637
   H ( 12)  3.389156  4.494492  5.266314  3.863938  3.387415  2.151000
   H ( 13)  2.135905  2.554100  3.500390  3.385300  3.863161  3.405542
             C (  7)   C (  8)   H (  9)   H ( 10)   H ( 11)   H ( 12)
   C (  8)  1.390671
   H (  9)  3.864429  3.394079
   H ( 10)  3.388391  3.863901  2.467380
   H ( 11)  2.153228  3.398261  4.292616  2.482075
   H ( 12)  1.081586  2.139561  4.945981  4.287240  2.483336
   H ( 13)  2.160227  1.081033  4.275484  4.944720  4.301656  2.482994


 Job number = 2, Threshold = 1.00E-08
Integral type ranges set in mkLRange.C for JobNum: 2  <1-21|1-21>
Symmetry turned off temporarily
 Using the largest function pair in Schwarz integrals
Total number of integrals generated =          294567
Symmetry turned back on
 A cutoff of  1.0D-08 yielded   2360 shell pairs
 There are     17997 function pairs (     19317 Cartesian)
 Job number = 11, Threshold = 1.00E-08
Integral type ranges set in mkLRange.C for JobNum: 11  <1-21|22-22>
Total number of integrals generated =          251121
 Smallest overlap matrix eigenvalue = 1.12E-06

 Q-Chem warning in module /usr/local/qchem/stvman/mkSTV.C, line 295:

 Overlap eigenvalue is smaller than square root of threshold

 Multipole matrices computed through 2nd order

 Scale SEOQF with 1.000000e-01/1.000000e-01/1.000000e-01

 Standard Electronic Orientation quadrupole field applied
 Nucleus-field energy     =     0.0000000077 hartrees
 ENuRep (before)= 271.4387017095
 ENucField = 0.0000000077
 ENuRep (after) = 271.4387017172
 Guess from superposition of atomic densities
 Warning:  Energy on first SCF cycle will be non-variational
 SAD guess density has 50.000000 electrons

 ==================================================
    GEN_SCFMAN: A general SCF calculation manager  
                                                   
    Authors:                                       
        -- Eric Jon Sundstrom 2008-2014            
        -- Paul Horn 2010-2015                     
        -- Yuezhi Mao 2012-                        
        -- Dmitri Zuev 2014                        
        -- Alec White 2015-                        
        -- David Stuck 2015                        
        -- Shaama M.S. 2015                        
        -- Shane Yost 2015-                         
        -- Joonho Lee 2016-                        
        -- David Small 2016-                       
        -- Daniel Levine 2016-                     
        -- Susi Lehtola 2017-                      
        -- Hugh Burton 2017-                       
 ==================================================
 Hartree-Fock
Finding J and K together
 Job number = 22, Threshold = 1.00E-08
Integral type ranges set in mkLRange.C for JobNum: 22  <1-21|1-21>
 MakeJK  time:  CPU       5.48 s  wall       5.62 s
 HF Exchange:              -42.39864844424984
 One-Electron:             -947.61664526977859
 Total Coulomb:            410.15317945160206
 Nuclear repulsion:        271.43870171720113
 A restricted SCF calculation will be
 performed using DIIS
 SCF converges when DIIS error is below 1.0e-05
 ---------------------------------------
  Cycle       Energy         DIIS error
 ---------------------------------------
Finding J and K together
 Job number = 22, Threshold = 1.00E-08
Integral type ranges set in mkLRange.C for JobNum: 22  <1-21|1-21>
 MakeJK  time:  CPU      22.43 s  wall      22.48 s
 HF Exchange:              -41.46405570204232
 One-Electron:             -952.56077448746669
 Total Coulomb:            417.03872011254322
 Nuclear repulsion:        271.43870171720113
    1    -308.4234125452      4.98e-02  
Finding J and K together
 Job number = 22, Threshold = 1.00E-08
Integral type ranges set in mkLRange.C for JobNum: 22  <1-21|1-21>
 MakeJK  time:  CPU      23.06 s  wall      23.16 s
 HF Exchange:              -41.43717814433349
 One-Electron:             -951.82316182579541
 Total Coulomb:            416.19442976353372
 Nuclear repulsion:        271.43870171720113
    2    -305.5474083598      3.88e-03  
Finding J and K together
 Job number = 22, Threshold = 1.00E-08
Integral type ranges set in mkLRange.C for JobNum: 22  <1-21|1-21>
 MakeJK  time:  CPU      22.92 s  wall      23.02 s
 HF Exchange:              -41.52530157948821
 One-Electron:             -952.26591085191762
 Total Coulomb:            416.71602321127676
 Nuclear repulsion:        271.43870171720113
    3    -305.6272084894      1.52e-03  
Finding J and K together
 Job number = 22, Threshold = 1.00E-08
Integral type ranges set in mkLRange.C for JobNum: 22  <1-21|1-21>
 MakeJK  time:  CPU      18.14 s  wall      18.39 s
 HF Exchange:              -41.51583588765063
 One-Electron:             -952.21485261999248
 Total Coulomb:            416.65374415689342
 Nuclear repulsion:        271.43870171720113
    4    -305.6364875029      5.92e-04  
Finding J and K together
 Job number = 22, Threshold = 1.00E-08
Integral type ranges set in mkLRange.C for JobNum: 22  <1-21|1-21>
 MakeJK  time:  CPU      14.77 s  wall      14.79 s
 HF Exchange:              -41.51553891654998
 One-Electron:             -952.16744117659459
 Total Coulomb:            416.60596259503797
 Nuclear repulsion:        271.43870171720113
    5    -305.6382426335      1.12e-04  
Finding J and K together
 Job number = 22, Threshold = 1.00E-08
Integral type ranges set in mkLRange.C for JobNum: 22  <1-21|1-21>
 MakeJK  time:  CPU      16.42 s  wall      16.82 s
 HF Exchange:              -41.51675034906288
 One-Electron:             -952.18252856618619
 Total Coulomb:            416.62225358418425
 Nuclear repulsion:        271.43870171720113
    6    -305.6383157809      2.94e-05  
Finding J and K together
 Job number = 22, Threshold = 1.00E-08
Integral type ranges set in mkLRange.C for JobNum: 22  <1-21|1-21>
 MakeJK  time:  CPU      14.94 s  wall      15.07 s
 HF Exchange:              -41.51660309991881
 One-Electron:             -952.18025498454358
 Total Coulomb:            416.61983142399794
 Nuclear repulsion:        271.43870171720113
    7    -305.6383236139      1.09e-05  
    8    -305.6383249433      3.80e-06  Convergence criterion met
 ---------------------------------------
 SCF time:   CPU 139.64s  wall 141.00s 
 Total energy in the final basis set =     -305.6383249433
 HF Exchange:              -41.51660309991881
 One-Electron:             -952.18025498454358
 Total Coulomb:            416.61983142399794
 Nuclear repulsion:        271.43870171720113
Wall  1 = 141
Clock 1 = 139.81266784667969
 ==================================================
                  Done GEN_SCFMAN                  
 ==================================================

Symmetry turned off temporarily

 --------------------------------------------------------------

                    Orbital Energies (a.u.)
 --------------------------------------------------------------

 Alpha MOs
 -- Occupied --
-20.594 -11.308 -11.246 -11.244 -11.238 -11.231 -11.231  -1.411
 -1.151  -1.024  -1.009  -0.851  -0.827  -0.738  -0.689  -0.656
 -0.614  -0.595  -0.593  -0.571  -0.521  -0.497  -0.485  -0.344
 -0.317
 -- Virtual --
  0.038   0.046   0.051   0.065   0.071   0.089   0.105   0.119
  0.132   0.134   0.150   0.155   0.157   0.170   0.178   0.181
  0.182   0.194   0.205   0.206   0.209   0.212   0.214   0.215
  0.228   0.238   0.243   0.255   0.286   0.290   0.298   0.319
  0.329   0.333   0.336   0.384   0.386   0.405   0.412   0.431
  0.434   0.449   0.457   0.478   0.503   0.524   0.539   0.567
  0.645   0.655   0.709   0.722   0.725   0.742   0.753   0.754
  0.757   0.759   0.798   0.813   0.816   0.820   0.886   0.916
  0.943   0.949   0.966   0.985   1.002   1.035   1.045   1.068
  1.076   1.112   1.118   1.134   1.138   1.199   1.215   1.225
  1.238   1.315   1.320   1.355   1.373   1.381   1.463   1.478
  1.506   1.595   1.653   1.725   1.772   1.791   1.831   1.834
  1.837   1.859   1.887   1.913   1.926   1.960   2.013   2.014
  2.052   2.081   2.111   2.189   2.220   2.224   2.233   2.248
  2.255   2.270   2.321   2.331   2.376   2.395   2.408   2.584
  2.644   2.651   2.753   2.785   2.789   2.843   2.906   2.968
  2.982   3.010   3.021   3.033   3.038   3.046   3.074   3.143
  3.176   3.184   3.211   3.274   3.287   3.323   3.473   3.484
  3.517   3.568   3.579   3.750   3.792   3.851   3.913   3.926
  4.020   4.084   4.311   4.410   4.456   4.555   4.572   4.602
  5.276   5.554   6.005   6.319  24.744  25.095  25.134  25.239
 25.265  25.365  51.642
 --------------------------------------------------------------

          Ground-State Mulliken Net Atomic Charges

     Atom                 Charge (a.u.)
  ----------------------------------------
      1 C                    -0.737973
      2 O                    -0.293761
      3 H                     0.266587
      4 C                     0.386817
      5 C                    -0.356999
      6 C                    -0.230793
      7 C                    -0.387988
      8 C                     0.339572
      9 H                     0.180323
     10 H                     0.202197
     11 H                     0.188376
     12 H                     0.202785
     13 H                     0.240856
  ----------------------------------------
  Sum of atomic charges =     0.000000

 -----------------------------------------------------------------
                    Cartesian Multipole Moments
 -----------------------------------------------------------------
    Charge (ESU x 10^10)
                 0.0000
    Dipole Moment (Debye)
         X      -0.2768      Y      -1.4584      Z      -0.1013
       Tot       1.4878
    Quadrupole Moments (Debye-Ang)
        XX     -38.3306     XY      -4.7993     YY     -35.5664
        XZ      -0.3059     YZ       0.1031     ZZ     -46.3845
    Octopole Moments (Debye-Ang^2)
       XXX       6.2481    XXY     -13.7318    XYY       4.7225
       YYY      -0.3844    XXZ      -0.9880    XYZ       0.3015
       YYZ      -0.0505    XZZ       6.4740    YZZ       0.0198
       ZZZ      -0.0518
    Hexadecapole Moments (Debye-Ang^3)
      XXXX    -488.6680   XXXY     -40.3513   XXYY    -117.9710
      XYYY      -3.4424   YYYY    -271.9280   XXXZ      -2.6678
      XXYZ       0.8511   XYYZ      -0.1924   YYYZ       0.0580
      XXZZ    -107.1208   XYZZ      -0.7480   YYZZ     -67.3667
      XZZZ      -0.2118   YZZZ       0.0763   ZZZZ     -54.9937
 -----------------------------------------------------------------
 Mayer SCF Bond Order, atomic valence on the diagonal:

            1           2           3           4           5           6
    1   4.6920457   1.6078851   0.0952066   0.9438114   0.2178547  -0.0892835
    2   1.6078851   1.6751119   0.9234272  -0.2272766   0.0116291   0.0109843
    3   0.0952066   0.9234272   0.9654609  -0.0862074   0.0015429  -0.0043244
    4   0.9438114  -0.2272766  -0.0862074   3.1572600   1.6437663  -0.0502567
    5   0.2178547   0.0116291   0.0015429   1.6437663   4.7857895   1.9018130
    6  -0.0892835   0.0109843  -0.0043244  -0.0502567   1.9018130   4.3350686
    7   0.2426243   0.0683848  -0.0013603  -0.1731792  -0.0509629   1.8219698
    8   1.5068288  -0.6478151   0.0331630   0.3130798   0.0004484  -0.1035735
    9   0.0478729  -0.0232236   0.0013468   0.7999258   0.1678220  -0.0327879
   10   0.0009502  -0.0006478   0.0012176   0.0588677   0.7961842   0.0682635
   11   0.0170290   0.0009402  -0.0003234  -0.0335133   0.1035892   0.7738197
   12   0.0018833   0.0020032   0.0004793   0.0020657  -0.0185519   0.0651081
   13   0.0993828  -0.0511788   0.0012931  -0.0338237   0.0106544  -0.0266637
            7           8           9          10          11          12
    1   0.2426243   1.5068288   0.0478729   0.0009502   0.0170290   0.0018833
    2   0.0683848  -0.6478151  -0.0232236  -0.0006478   0.0009402   0.0020032
    3  -0.0013603   0.0331630   0.0013468   0.0012176  -0.0003234   0.0004793
    4  -0.1731792   0.3130798   0.7999258   0.0588677  -0.0335133   0.0020657
    5  -0.0509629   0.0004484   0.1678220   0.7961842   0.1035892  -0.0185519
    6   1.8219698  -0.1035735  -0.0327879   0.0682635   0.7738197   0.0651081
    7   4.7027786   1.7676960   0.0186875  -0.0209984   0.1057537   0.8250079
    8   1.7676960   3.5534090  -0.0646498   0.0020506  -0.0391303   0.0293585
    9   0.0186875  -0.0646498   0.9240983   0.0083156   0.0003027   0.0000327
   10  -0.0209984   0.0020506   0.0083156   0.9250069   0.0099945   0.0007304
   11   0.1057537  -0.0391303   0.0003027   0.0099945   0.9480663   0.0091054
   12   0.8250079   0.0293585   0.0000327   0.0007304   0.0091054   0.9241966
   13   0.0991553   0.7559525   0.0004534   0.0000788   0.0004988   0.0069740
           13
    1   0.0993828
    2  -0.0511788
    3   0.0012931
    4  -0.0338237
    5   0.0106544
    6  -0.0266637
    7   0.0991553
    8   0.7559525
    9   0.0004534
   10   0.0000788
   11   0.0004988
   12   0.0069740
   13   0.8627770


 JobOver = TRUE
Archival summary:
1\1\qciep03\SP\HF\BasisUnspecified\166\jcartus\ThuJan2517:50:462018ThuJan2517:50:462018\0\\#,HF,BasisUnspecified,\\0,1\C\O,1,1.36173\H,2,0.969317,1,108.98\C,1,1.39558,2,117.429,3,-176.132,0\H,4,1.08103,1,118.631,2,-0.159939,0\C,4,1.39067,1,120.026,2,179.849,0\H,6,1.08159,4,119.338,1,179.968,0\C,6,1.39441,4,120.565,1,-0.123716,0\H,8,1.08064,6,120.382,4,-179.905,0\C,8,1.39223,6,119.267,4,0.165462,0\H,10,1.08166,8,120.182,6,179.987,0\C,10,1.39332,8,120.559,6,-0.0524541,0\H,12,1.08205,10,120.266,8,179.908,0\\HF=-305.638325\\@

 Total job time:  141.92s(wall), 140.53s(cpu) 
 Thu Jan 25 17:50:46 2018

        *************************************************************
        *                                                           *
        *  Thank you very much for using Q-Chem.  Have a nice day.  *
        *                                                           *
        *************************************************************


*** MISSION COMPLETED -- STARFLEET OUT ***

0 sent ACK to 0 
now end server 0 ... 
