Process 0 of 1 is on qciep03 - thread support 0
initial socket setup ...start
initial socket setup ...done 
now start server 0 ... 
qciep03.tugraz.at 127.0.1
Q-Chem Developer Version! Running on 127.0.1.*
                  Welcome to Q-Chem
     A Quantum Leap Into The Future Of Chemistry


 Q-Chem 5.0, Q-Chem, Inc., Pleasanton, CA (2017)

 Yihan Shao,  Zhengting Gan,  E. Epifanovsky,  A. T. B. Gilbert,  M. Wormit,  
 J. Kussmann,  A. W. Lange,  A. Behn,  Jia Deng,  Xintian Feng,  D. Ghosh,  
 M. Goldey,  P. R. Horn,  L. D. Jacobson,  I. Kaliman,  T. Kus,  A. Landau,  
 Jie Liu,  E. I. Proynov,  R. M. Richard,  R. P. Steele,  E. J. Sundstrom,  
 H. L. Woodcock III,  P. M. Zimmerman,  D. Zuev,  B. Albrecht,  E. Alguire,  
 S. A. Baeppler,  D. Barton,  Z. Benda,  Y. A. Bernard,  E. J. Berquist,  
 K. B. Bravaya,  H. Burton,  D. Casanova,  Chun-Min Chang,  Yunqing Chen,  
 A. Chien,  K. D. Closser,  M. P. Coons,  S. Dasgupta,  A. L. Dempwolff,  
 M. Diedenhofen,  Hainam Do,  R. G. Edgar,  Po-Tung Fang,  S. Fatehi,  
 Qingguo Feng,  J. Fosso-Tande,  Qinghui Ge,  A. Ghysels,  G. Gidofalvi,  
 J. Gomes,  J. Gonthier,  A. Gunina,  M. W. D. Hanson-Heine,  
 P. H. P. Harbach,  A. W. Hauser,  J. E. Herr,  E. G. Hohenstein,  
 Z. C. Holden,  Kerwin Hui,  T.-C. Jagau,  Hyunjun Ji,  B. Kaduk,  
 K. Khistyaev,  Jaehoon Kim,  P. Klunzinger,  K. Koh,  D. Kosenkov,  
 L. Koulias,  T. Kowalczyk,  C. M. Krauter,  A. Kunitsa,  Ka Un Lao,  
 A. Laurent,  K. V. Lawler,  Joonho Lee,  D. Lefrancois,  S. Lehtola,  
 D. S. Levine,  Yi-Pei Li,  You-Sheng Lin,  Fenglai Liu,  E. Livshits,  
 A. Luenser,  P. Manohar,  E. Mansoor,  S. F. Manzer,  Shan-Ping Mao,  
 Yuezhi Mao,  N. Mardirossian,  A. V. Marenich,  T. Markovich,  
 L. A. Martinez-Martinez,  S. A. Maurer,  N. J. Mayhall,  S. C. McKenzie,  
 J.-M. Mewes,  A. F. Morrison,  J. W. Mullinax,  K. Nanda,  
 T. S. Nguyen-Beck,  R. Olivares-Amaya,  J. A. Parkhill,  T. M. Perrine,  
 F. Plasser,  S. Prager,  A. Prociuk,  E. Ramos,  D. R. Rehn,  F. Rob,  
 M. Schneider,  N. Sergueev,  S. M. Sharada,  S. Sharma,  D. W. Small,  
 T. Stauch,  T. Stein,  Yu-Chuan Su,  A. J. W. Thom,  A. Tkatchenko,  
 T. Tsuchimochi,  L. Vogt,  O. Vydrov,  M. A. Watson,  J. Wenzel,  
 M. de Wergifosse,  T. A. Wesolowski,  A. White,  J. Witte,  A. Yamada,  
 Jun Yang,  K. Yao,  S. Yeganeh,  S. R. Yost,  Zhi-Qiang You,  A. Zech,  
 Igor Ying Zhang,  Xing Zhang,  Yan Zhao,  Ying Zhu,  B. R. Brooks,  
 G. K. L. Chan,  C. J. Cramer,  M. S. Gordon,  W. J. Hehre,  A. Klamt,  
 M. W. Schmidt,  C. D. Sherrill,  D. G. Truhlar,  A. Aspuru-Guzik,  R. Baer,  
 A. T. Bell,  N. A. Besley,  Jeng-Da Chai,  R. A. DiStasio Jr.,  A. Dreuw,  
 B. D. Dunietz,  T. R. Furlani,  Chao-Ping Hsu,  Yousung Jung,  Jing Kong,  
 D. S. Lambrecht,  WanZhen Liang,  C. Ochsenfeld,  V. A. Rassolov,  
 L. V. Slipchenko,  J. E. Subotnik,  T. Van Voorhis,  J. M. Herbert,  
 A. I. Krylov,  P. M. W. Gill,  M. Head-Gordon

 Contributors to earlier versions of Q-Chem not listed above: 
 R. D. Adamson,  B. Austin,  J. Baker,  G. J. O. Beran,  K. Brandhorst,  
 S. T. Brown,  E. F. C. Byrd,  A. K. Chakraborty,  C.-L. Cheng,  
 Siu Hung Chien,  D. M. Chipman,  D. L. Crittenden,  H. Dachsel,  
 R. J. Doerksen,  A. D. Dutoi,  L. Fusti-Molnar,  W. A. Goddard III,  
 A. Golubeva-Zadorozhnaya,  S. R. Gwaltney,  G. Hawkins,  A. Heyden,  
 S. Hirata,  G. Kedziora,  F. J. Keil,  C. Kelley,  Jihan Kim,  R. A. King,  
 R. Z. Khaliullin,  P. P. Korambath,  W. Kurlancheek,  A. M. Lee,  M. S. Lee,  
 S. V. Levchenko,  Ching Yeh Lin,  D. Liotard,  R. C. Lochan,  I. Lotan,  
 P. E. Maslen,  N. Nair,  D. P. O'Neill,  D. Neuhauser,  E. Neuscamman,  
 C. M. Oana,  R. Olson,  B. Peters,  R. Peverati,  P. A. Pieniazek,  
 Y. M. Rhee,  J. Ritchie,  M. A. Rohrdanz,  E. Rosta,  N. J. Russ,  
 H. F. Schaefer III,  N. E. Schultz,  N. Shenvi,  A. C. Simmonett,  A. Sodt,  
 D. Stuck,  K. S. Thanthiriwatte,  V. Vanovschi,  Tao Wang,  A. Warshel,  
 C. F. Williams,  Q. Wu,  X. Xu,  W. Zhang

 Please cite Q-Chem as follows:
 Y. Shao et al., Mol. Phys. 113, 184-215 (2015)
 DOI: 10.1080/00268976.2014.952696

 Q-Chem 5.0.2 for Intel X86 EM64T Linux

 Parts of Q-Chem use Armadillo 5.200.1 (Boston Tea Smuggler).
 http://arma.sourceforge.net/

 Q-Chem begins on Thu Feb  1 11:54:45 2018  


Host: 0

     Scratch files written to /home/jcartus/scratch/40_methanol-chloromethane.dir//
 Using version located at /usr/local/qchem/bin/qchem

 Parallel job on  1  processors

Total Memory Limit in MB = 2000
Mega-Array Size in MB = 192

Checking the input file for inconsistencies... 	...done.
Finally everything over in PARseQInput

--------------------------------------------------------------
User input:
--------------------------------------------------------------
$rem
SCF_PRINT                     1
BASIS                         6-311++g**
SCF_SAVE_MATRICES             1
SCF_CONVERGENCE               5
SCF_FINAL_PRINT               1
METHOD                        hf
JOBTYPE                       sp
$end

$molecule
0 1
H    1.101371146    -0.000117739    -0.587770996
O    0.397090227    -2.7546e-05    0.067866526
C    1.005829292    1.3334e-05    1.347930653
H    0.205003605    -4.3e-07    2.081297025
H    1.620180682    -0.886685805    1.514496095
H    1.620127834    0.886756142    1.514470494
Cl    1.5347557    -2.78e-07    -3.014973713
C    -0.250343184    1.1724e-05    -3.026056648
H    -0.580143384    1.8132e-05    -4.057685667
H    -0.592367277    -0.887056056    -2.508114642
H    -0.592357482    0.887077343    -2.508105102
$end


--------------------------------------------------------------
 ----------------------------------------------------------------
             Standard Nuclear Orientation (Angstroms)
    I     Atom           X                Y                Z
 ----------------------------------------------------------------
    1      H       0.8941574414    -0.2793624385     0.0001142095
    2      O       1.5571562257     0.4179931273     0.0000245467
    3      C       2.8307558360    -0.2041575384    -0.0000191014
    4      H       3.5724932428     0.5889210428    -0.0000047194
    5      H       2.9908603278    -0.8202262738     0.8866786514
    6      H       2.9908331010    -0.8201697367    -0.8867632954
    7      Cl     -1.5374634467    -0.6872289095    -0.0000010465
    8      C      -1.5297959460     1.0978879120    -0.0000096124
    9      H      -2.5579039933     1.4385056566    -0.0000140978
   10      H      -1.0082889625     1.4344512106     0.8870581755
   11      H      -1.0082817091     1.4344447404    -0.8870752235
 ----------------------------------------------------------------
 Molecular Point Group                 C1    NOp =  1
 Largest Abelian Subgroup              C1    NOp =  1
 Nuclear Repulsion Energy =   157.8609812476 hartrees
 There are       22 alpha and       22 beta electrons
 Requested basis set is 6-311++G(d,p)
 There are 66 shells and 145 basis functions

 Total QAlloc Memory Limit   2000 MB
 Mega-Array Size       188 MB
 MEM_STATIC part       192 MB

finished with qalloc call

                       Distance Matrix (Angstroms)
             H (  1)   O (  2)   C (  3)   H (  4)   H (  5)   H (  6)
   O (  2)  0.962223
   C (  3)  1.938058  1.417437
   H (  4)  2.815564  2.022573  1.085886
   H (  5)  2.339806  2.091614  1.091516  1.763576
   H (  6)  2.339887  2.091619  1.091518  1.763578  1.773442
   Cl(  7)  2.465590  3.286059  4.394849  5.266898  4.616233  4.616220
   C (  8)  2.787897  3.160938  4.550795  5.127612  4.990161  4.990127
   H (  9)  3.855878  4.239713  5.633471  6.188987  6.056144  6.056106
   H ( 10)  2.709821  2.898538  4.267342  4.741874  4.590944  4.921660
   H ( 11)  2.709892  2.898550  4.267329  4.741867  4.921675  4.590883
             Cl(  7)   C (  8)   H (  9)   H ( 10)
   C (  8)  1.785133
   H (  9)  2.357975  1.083064
   H ( 10)  2.359751  1.082651  1.785559
   H ( 11)  2.359753  1.082651  1.785560  1.774133

 Job number = 2, Threshold = 1.00E-08
Integral type ranges set in mkLRange.C for JobNum: 2  <1-21|1-21>
Symmetry turned off temporarily
 Using the largest function pair in Schwarz integrals
Total number of integrals generated =          105973
Symmetry turned back on
 A cutoff of  1.0D-08 yielded   1859 shell pairs
 There are      8957 function pairs (      9433 Cartesian)
 Job number = 11, Threshold = 1.00E-08
Integral type ranges set in mkLRange.C for JobNum: 11  <1-21|22-22>
Total number of integrals generated =          103664
 Smallest overlap matrix eigenvalue = 2.74E-04
 Multipole matrices computed through 2nd order

 Scale SEOQF with 1.000000e-01/1.000000e-01/1.000000e-01

 Standard Electronic Orientation quadrupole field applied
 Nucleus-field energy     =     0.0000000072 hartrees
 ENuRep (before)= 157.8609812476
 ENucField = 0.0000000072
 ENuRep (after) = 157.8609812548
 Guess from superposition of atomic densities
 Warning:  Energy on first SCF cycle will be non-variational
 SAD guess density has 44.000000 electrons

 ==================================================
    GEN_SCFMAN: A general SCF calculation manager  
                                                   
    Authors:                                       
        -- Eric Jon Sundstrom 2008-2014            
        -- Paul Horn 2010-2015                     
        -- Yuezhi Mao 2012-                        
        -- Dmitri Zuev 2014                        
        -- Alec White 2015-                        
        -- David Stuck 2015                        
        -- Shaama M.S. 2015                        
        -- Shane Yost 2015-                         
        -- Joonho Lee 2016-                        
        -- David Small 2016-                       
        -- Daniel Levine 2016-                     
        -- Susi Lehtola 2017-                      
        -- Hugh Burton 2017-                       
 ==================================================
 Hartree-Fock
Finding J and K together
 Job number = 22, Threshold = 1.00E-08
Integral type ranges set in mkLRange.C for JobNum: 22  <1-21|1-21>
 MakeJK  time:  CPU       2.66 s  wall       2.93 s
 HF Exchange:              -48.42526472286644
 One-Electron:             -1155.75217774699081
 Total Coulomb:            431.59501561768371
 Nuclear repulsion:        157.86098125479765
 A restricted SCF calculation will be
 performed using DIIS
 SCF converges when DIIS error is below 1.0e-05
 ---------------------------------------
  Cycle       Energy         DIIS error
 ---------------------------------------
Finding J and K together
 Job number = 22, Threshold = 1.00E-08
Integral type ranges set in mkLRange.C for JobNum: 22  <1-21|1-21>
 MakeJK  time:  CPU       7.59 s  wall       8.03 s
 HF Exchange:              -48.64889352739464
 One-Electron:             -1159.59174090042120
 Total Coulomb:            436.22186565062992
 Nuclear repulsion:        157.86098125479765
    1    -614.7214455974      4.57e-02  
Finding J and K together
 Job number = 22, Threshold = 1.00E-08
Integral type ranges set in mkLRange.C for JobNum: 22  <1-21|1-21>
 MakeJK  time:  CPU       7.82 s  wall       8.24 s
 HF Exchange:              -48.59539380928521
 One-Electron:             -1158.86781084446534
 Total Coulomb:            435.39818986670207
 Nuclear repulsion:        157.86098125479765
    2    -614.1577875224      4.54e-03  
Finding J and K together
 Job number = 22, Threshold = 1.00E-08
Integral type ranges set in mkLRange.C for JobNum: 22  <1-21|1-21>
 MakeJK  time:  CPU       7.66 s  wall       7.74 s
 HF Exchange:              -48.67548356272803
 One-Electron:             -1159.37985772102434
 Total Coulomb:            435.98031988150683
 Nuclear repulsion:        157.86098125479765
    3    -614.2040335323      2.31e-03  
Finding J and K together
 Job number = 22, Threshold = 1.00E-08
Integral type ranges set in mkLRange.C for JobNum: 22  <1-21|1-21>
 MakeJK  time:  CPU       7.78 s  wall       7.79 s
 HF Exchange:              -48.66993787399639
 One-Electron:             -1159.26437534095908
 Total Coulomb:            435.85856030447502
 Nuclear repulsion:        157.86098125479765
    4    -614.2140401474      4.97e-04  
Finding J and K together
 Job number = 22, Threshold = 1.00E-08
Integral type ranges set in mkLRange.C for JobNum: 22  <1-21|1-21>
 MakeJK  time:  CPU       7.64 s  wall       7.65 s
 HF Exchange:              -48.67481644807837
 One-Electron:             -1159.29479477639279
 Total Coulomb:            435.89381730615298
 Nuclear repulsion:        157.86098125479765
    5    -614.2147716557      1.06e-04  
Finding J and K together
 Job number = 22, Threshold = 1.00E-08
Integral type ranges set in mkLRange.C for JobNum: 22  <1-21|1-21>
 MakeJK  time:  CPU       7.75 s  wall       7.77 s
 HF Exchange:              -48.67426825698225
 One-Electron:             -1159.28646248287919
 Total Coulomb:            435.88493227117556
 Nuclear repulsion:        157.86098125479765
    6    -614.2148126635      3.42e-05  
    7    -614.2148172139      8.18e-06  Convergence criterion met
 ---------------------------------------
 SCF time:   CPU 49.57s  wall 51.00s 
 Total energy in the final basis set =     -614.2148172139
 HF Exchange:              -48.67426825698225
 One-Electron:             -1159.28646248287919
 Total Coulomb:            435.88493227117556
 Nuclear repulsion:        157.86098125479765
Wall  1 = 51
Clock 1 = 49.68074798583984
 ==================================================
                  Done GEN_SCFMAN                  
 ==================================================

Symmetry turned off temporarily

 --------------------------------------------------------------

                    Orbital Energies (a.u.)
 --------------------------------------------------------------

 Alpha MOs
 -- Occupied --
******* -20.553 -11.290 -11.269 -10.557  -8.025  -8.022  -8.022
 -1.357  -1.135  -0.925  -0.918  -0.692  -0.623  -0.621  -0.616
 -0.589  -0.550  -0.504  -0.448  -0.444  -0.442
 -- Virtual --
  0.041   0.048   0.070   0.071   0.079   0.090   0.092   0.130
  0.136   0.148   0.155   0.162   0.170   0.177   0.183   0.186
  0.203   0.218   0.254   0.263   0.279   0.292   0.301   0.309
  0.340   0.345   0.367   0.382   0.388   0.416   0.450   0.491
  0.542   0.553   0.586   0.593   0.620   0.621   0.662   0.734
  0.768   0.793   0.841   0.854   0.857   0.877   0.885   0.922
  1.041   1.063   1.066   1.153   1.154   1.168   1.183   1.259
  1.277   1.356   1.387   1.408   1.410   1.441   1.469   1.627
  1.695   1.718   1.721   1.789   1.823   1.827   1.835   1.871
  1.964   1.989   1.994   2.009   2.015   2.095   2.253   2.318
  2.373   2.423   2.434   2.452   2.537   2.686   2.697   2.760
  2.776   2.786   2.794   2.795   2.809   2.859   2.859   2.895
  2.899   2.910   3.039   3.218   3.288   3.388   3.477   3.601
  3.633   3.705   4.120   4.144   4.150   4.193   4.331   4.525
  5.588   5.958   6.243  10.447  25.033  25.092  26.738  26.900
 27.226  51.613 219.303
 --------------------------------------------------------------

          Ground-State Mulliken Net Atomic Charges

     Atom                 Charge (a.u.)
  ----------------------------------------
      1 H                     0.250931
      2 O                    -0.381400
      3 C                    -0.226454
      4 H                     0.124662
      5 H                     0.112018
      6 H                     0.112028
      7 Cl                    0.021766
      8 C                    -0.605833
      9 H                     0.190792
     10 H                     0.200746
     11 H                     0.200745
  ----------------------------------------
  Sum of atomic charges =     0.000000

 -----------------------------------------------------------------
                    Cartesian Multipole Moments
 -----------------------------------------------------------------
    Charge (ESU x 10^10)
                 0.0000
    Dipole Moment (Debye)
         X       0.2894      Y       0.4516      Z       0.0001
       Tot       0.5364
    Quadrupole Moments (Debye-Ang)
        XX     -29.9052     XY      -6.0381     YY     -32.3689
        XZ       0.0000     YZ      -0.0002     ZZ     -33.8361
    Octopole Moments (Debye-Ang^2)
       XXX      14.4966    XXY       4.7213    XYY      -2.8936
       YYY      -0.4456    XXZ      -0.0003    XYZ      -0.0002
       YYZ       0.0000    XZZ       0.6203    YZZ       0.7590
       ZZZ       0.0000
    Hexadecapole Moments (Debye-Ang^3)
      XXXX    -732.2598   XXXY     -11.8495   XXYY    -150.9767
      XYYY       3.2575   YYYY    -144.2845   XXXZ      -0.0002
      XXYZ      -0.0004   XYYZ       0.0001   YYYZ      -0.0002
      XXZZ    -142.6429   XYZZ      -2.2743   YYZZ     -32.0638
      XZZZ       0.0000   YZZZ      -0.0000   ZZZZ     -48.5438
 -----------------------------------------------------------------
 Mayer SCF Bond Order, atomic valence on the diagonal:

            1           2           3           4           5           6
    1   0.9816491   0.9020882  -0.0217718   0.0052819  -0.0107174  -0.0107227
    2   0.9020882   1.6593672   0.8598084  -0.0484147  -0.0256761  -0.0256776
    3  -0.0217718   0.8598084   3.8033368   1.0067432   0.9906116   0.9906088
    4   0.0052819  -0.0484147   1.0067432   0.9263495  -0.0184660  -0.0184647
    5  -0.0107174  -0.0256761   0.9906116  -0.0184660   0.9143933  -0.0214262
    6  -0.0107227  -0.0256776   0.9906088  -0.0184647  -0.0214262   0.9143870
    7   0.1005420  -0.0225144  -0.0160213  -0.0020505   0.0004855   0.0004872
    8   0.0186732   0.0498217  -0.0069959   0.0017282  -0.0007700  -0.0007694
    9   0.0012725   0.0066557   0.0005011   0.0001239   0.0000505   0.0000506
   10  -0.0014994  -0.0183616  -0.0000732  -0.0000659   0.0003492  -0.0000479
   11  -0.0014974  -0.0183624  -0.0000741  -0.0000660  -0.0000479   0.0003489
            7           8           9          10          11
    1   0.1005420   0.0186732   0.0012725  -0.0014994  -0.0014974
    2  -0.0225144   0.0498217   0.0066557  -0.0183616  -0.0183624
    3  -0.0160213  -0.0069959   0.0005011  -0.0000732  -0.0000741
    4  -0.0020505   0.0017282   0.0001239  -0.0000659  -0.0000660
    5   0.0004855  -0.0007700   0.0000505   0.0003492  -0.0000479
    6   0.0004872  -0.0007694   0.0000506  -0.0000479   0.0003489
    7   0.8086364   0.7764084  -0.0103899  -0.0091581  -0.0091527
    8   0.7764084   3.6920005   0.9394732   0.9572146   0.9572166
    9  -0.0103899   0.9394732   0.9145758  -0.0115813  -0.0115806
   10  -0.0091581   0.9572146  -0.0115813   0.8860271  -0.0307494
   11  -0.0091527   0.9572166  -0.0115806  -0.0307494   0.8860350


 JobOver = TRUE
Archival summary:
1\1\qciep03\SP\HF\BasisUnspecified\l1127\jcartus\ThuFeb111:55:362018ThuFeb111:55:362018\0\\#,HF,BasisUnspecified,\\0,1\Cl\C,1,1.78513\H,2,1.08265,1,108.236\H,2,1.08265,1,108.236,3,-119.236,0\H,2,1.08306,1,108.084,3,120.382,0\H,1,2.46559,2,80.2321,3,59.6207,0\O,6,0.962223,1,143.075,2,-0.0117109,0\C,7,1.41744,6,107.518,1,-179.988,0\H,8,1.08589,7,107.049,6,-179.994,0\H,8,1.09152,7,112.303,6,-61.4035,0\H,8,1.09152,7,112.303,6,61.4161,0\\HF=-614.214817\\@

 Total job time:  51.42s(wall), 50.13s(cpu) 
 Thu Feb  1 11:55:36 2018

        *************************************************************
        *                                                           *
        *  Thank you very much for using Q-Chem.  Have a nice day.  *
        *                                                           *
        *************************************************************


*** MISSION COMPLETED -- STARFLEET OUT ***

0 sent ACK to 0 
now end server 0 ... 
