Process 0 of 1 is on qciep03 - thread support 0
initial socket setup ...start
initial socket setup ...done 
now start server 0 ... 
qciep03.tugraz.at 127.0.1
Q-Chem Developer Version! Running on 127.0.1.*
                  Welcome to Q-Chem
     A Quantum Leap Into The Future Of Chemistry


 Q-Chem 5.0, Q-Chem, Inc., Pleasanton, CA (2017)

 Yihan Shao,  Zhengting Gan,  E. Epifanovsky,  A. T. B. Gilbert,  M. Wormit,  
 J. Kussmann,  A. W. Lange,  A. Behn,  Jia Deng,  Xintian Feng,  D. Ghosh,  
 M. Goldey,  P. R. Horn,  L. D. Jacobson,  I. Kaliman,  T. Kus,  A. Landau,  
 Jie Liu,  E. I. Proynov,  R. M. Richard,  R. P. Steele,  E. J. Sundstrom,  
 H. L. Woodcock III,  P. M. Zimmerman,  D. Zuev,  B. Albrecht,  E. Alguire,  
 S. A. Baeppler,  D. Barton,  Z. Benda,  Y. A. Bernard,  E. J. Berquist,  
 K. B. Bravaya,  H. Burton,  D. Casanova,  Chun-Min Chang,  Yunqing Chen,  
 A. Chien,  K. D. Closser,  M. P. Coons,  S. Dasgupta,  A. L. Dempwolff,  
 M. Diedenhofen,  Hainam Do,  R. G. Edgar,  Po-Tung Fang,  S. Fatehi,  
 Qingguo Feng,  J. Fosso-Tande,  Qinghui Ge,  A. Ghysels,  G. Gidofalvi,  
 J. Gomes,  J. Gonthier,  A. Gunina,  M. W. D. Hanson-Heine,  
 P. H. P. Harbach,  A. W. Hauser,  J. E. Herr,  E. G. Hohenstein,  
 Z. C. Holden,  Kerwin Hui,  T.-C. Jagau,  Hyunjun Ji,  B. Kaduk,  
 K. Khistyaev,  Jaehoon Kim,  P. Klunzinger,  K. Koh,  D. Kosenkov,  
 L. Koulias,  T. Kowalczyk,  C. M. Krauter,  A. Kunitsa,  Ka Un Lao,  
 A. Laurent,  K. V. Lawler,  Joonho Lee,  D. Lefrancois,  S. Lehtola,  
 D. S. Levine,  Yi-Pei Li,  You-Sheng Lin,  Fenglai Liu,  E. Livshits,  
 A. Luenser,  P. Manohar,  E. Mansoor,  S. F. Manzer,  Shan-Ping Mao,  
 Yuezhi Mao,  N. Mardirossian,  A. V. Marenich,  T. Markovich,  
 L. A. Martinez-Martinez,  S. A. Maurer,  N. J. Mayhall,  S. C. McKenzie,  
 J.-M. Mewes,  A. F. Morrison,  J. W. Mullinax,  K. Nanda,  
 T. S. Nguyen-Beck,  R. Olivares-Amaya,  J. A. Parkhill,  T. M. Perrine,  
 F. Plasser,  S. Prager,  A. Prociuk,  E. Ramos,  D. R. Rehn,  F. Rob,  
 M. Schneider,  N. Sergueev,  S. M. Sharada,  S. Sharma,  D. W. Small,  
 T. Stauch,  T. Stein,  Yu-Chuan Su,  A. J. W. Thom,  A. Tkatchenko,  
 T. Tsuchimochi,  L. Vogt,  O. Vydrov,  M. A. Watson,  J. Wenzel,  
 M. de Wergifosse,  T. A. Wesolowski,  A. White,  J. Witte,  A. Yamada,  
 Jun Yang,  K. Yao,  S. Yeganeh,  S. R. Yost,  Zhi-Qiang You,  A. Zech,  
 Igor Ying Zhang,  Xing Zhang,  Yan Zhao,  Ying Zhu,  B. R. Brooks,  
 G. K. L. Chan,  C. J. Cramer,  M. S. Gordon,  W. J. Hehre,  A. Klamt,  
 M. W. Schmidt,  C. D. Sherrill,  D. G. Truhlar,  A. Aspuru-Guzik,  R. Baer,  
 A. T. Bell,  N. A. Besley,  Jeng-Da Chai,  R. A. DiStasio Jr.,  A. Dreuw,  
 B. D. Dunietz,  T. R. Furlani,  Chao-Ping Hsu,  Yousung Jung,  Jing Kong,  
 D. S. Lambrecht,  WanZhen Liang,  C. Ochsenfeld,  V. A. Rassolov,  
 L. V. Slipchenko,  J. E. Subotnik,  T. Van Voorhis,  J. M. Herbert,  
 A. I. Krylov,  P. M. W. Gill,  M. Head-Gordon

 Contributors to earlier versions of Q-Chem not listed above: 
 R. D. Adamson,  B. Austin,  J. Baker,  G. J. O. Beran,  K. Brandhorst,  
 S. T. Brown,  E. F. C. Byrd,  A. K. Chakraborty,  C.-L. Cheng,  
 Siu Hung Chien,  D. M. Chipman,  D. L. Crittenden,  H. Dachsel,  
 R. J. Doerksen,  A. D. Dutoi,  L. Fusti-Molnar,  W. A. Goddard III,  
 A. Golubeva-Zadorozhnaya,  S. R. Gwaltney,  G. Hawkins,  A. Heyden,  
 S. Hirata,  G. Kedziora,  F. J. Keil,  C. Kelley,  Jihan Kim,  R. A. King,  
 R. Z. Khaliullin,  P. P. Korambath,  W. Kurlancheek,  A. M. Lee,  M. S. Lee,  
 S. V. Levchenko,  Ching Yeh Lin,  D. Liotard,  R. C. Lochan,  I. Lotan,  
 P. E. Maslen,  N. Nair,  D. P. O'Neill,  D. Neuhauser,  E. Neuscamman,  
 C. M. Oana,  R. Olson,  B. Peters,  R. Peverati,  P. A. Pieniazek,  
 Y. M. Rhee,  J. Ritchie,  M. A. Rohrdanz,  E. Rosta,  N. J. Russ,  
 H. F. Schaefer III,  N. E. Schultz,  N. Shenvi,  A. C. Simmonett,  A. Sodt,  
 D. Stuck,  K. S. Thanthiriwatte,  V. Vanovschi,  Tao Wang,  A. Warshel,  
 C. F. Williams,  Q. Wu,  X. Xu,  W. Zhang

 Please cite Q-Chem as follows:
 Y. Shao et al., Mol. Phys. 113, 184-215 (2015)
 DOI: 10.1080/00268976.2014.952696

 Q-Chem 5.0.2 for Intel X86 EM64T Linux

 Parts of Q-Chem use Armadillo 5.200.1 (Boston Tea Smuggler).
 http://arma.sourceforge.net/

 Q-Chem begins on Thu Feb  1 12:06:04 2018  


Host: 0

     Scratch files written to /home/jcartus/scratch/05_fluoromethane-methane.dir//
 Using version located at /usr/local/qchem/bin/qchem

 Parallel job on  1  processors

Total Memory Limit in MB = 2000
Mega-Array Size in MB = 192

Checking the input file for inconsistencies... 	...done.
Finally everything over in PARseQInput

--------------------------------------------------------------
User input:
--------------------------------------------------------------
$rem
SCF_PRINT                     1
BASIS                         6-311++g**
SCF_SAVE_MATRICES             1
SCF_CONVERGENCE               5
SCF_FINAL_PRINT               1
METHOD                        hf
JOBTYPE                       sp
$end

$molecule
0 1
C    0.00591865    -0.003496527    1.853878993
F    -1.172542855    0.674817567    1.614587488
H    0.830709843    0.546048289    1.407962789
H    -0.056058041    -0.993747823    1.41035538
H    0.156078035    -0.088328739    2.927069055
C    0.017128682    -0.009767481    -1.680303942
H    -0.063241616    0.035668447    -2.761803854
H    -0.841686927    -0.534736175    -1.274267671
H    0.927869926    -0.535377764    -1.409431408
H    0.042730234    0.99699675    -1.275640625
$end


--------------------------------------------------------------
 ----------------------------------------------------------------
             Standard Nuclear Orientation (Angstroms)
    I     Atom           X                Y                Z
 ----------------------------------------------------------------
    1      C       1.2376382453    -0.6324243706    -0.0000052751
    2      F       1.2515213319     0.7481368243     0.0000024146
    3      H       0.7184890946    -0.9839498952    -0.8877187665
    4      H       0.7209965605    -0.9839966815     0.8891686193
    5      H       2.2610649493    -0.9985896064    -0.0014391556
    6      C      -2.2390742681     0.0024646800    -0.0000014020
    7      H      -3.2853527182     0.2913707017     0.0007623893
    8      H      -1.7514812577     0.4023385528     0.8833873999
    9      H      -2.1654428118    -1.0808933797     0.0011969614
   10      H      -1.7533496670     0.4002470332    -0.8853391160
 ----------------------------------------------------------------
 Molecular Point Group                 C1    NOp =  1
 Largest Abelian Subgroup              C1    NOp =  1
 Nuclear Repulsion Energy =    77.5544919334 hartrees
 There are       14 alpha and       14 beta electrons
 Requested basis set is 6-311++G(d,p)
 There are 53 shells and 115 basis functions

 Total QAlloc Memory Limit   2000 MB
 Mega-Array Size       188 MB
 MEM_STATIC part       192 MB

finished with qalloc call

                       Distance Matrix (Angstroms)
             C (  1)   F (  2)   H (  3)   H (  4)   H (  5)   C (  6)
   F (  2)  1.380631
   H (  3)  1.086794  2.017993
   H (  4)  1.086808  2.018009  1.776889
   H (  5)  1.086960  2.017482  1.779114  1.779103
   C (  6)  3.534206  3.569354  3.241641  3.244341  4.610137
   H (  7)  4.616367  4.559809  4.294949  4.297285  5.694449  1.085433
   H (  8)  3.284197  3.149281  3.340564  2.834626  4.341203  1.085367
   H (  9)  3.432504  3.875693  3.019376  3.021492  4.427274  1.085858
   H ( 10)  3.285762  3.151842  2.833018  3.344757  4.342067  1.085349
             H (  7)   H (  8)   H (  9)
   H (  8)  1.773162
   H (  9)  1.771245  1.774712
   H ( 10)  1.773151  1.768729  1.774695

 Job number = 2, Threshold = 1.00E-08
Integral type ranges set in mkLRange.C for JobNum: 2  <1-21|1-21>
Symmetry turned off temporarily
 Using the largest function pair in Schwarz integrals
Total number of integrals generated =           72203
Symmetry turned back on
 A cutoff of  1.0D-08 yielded   1295 shell pairs
 There are      6073 function pairs (      6389 Cartesian)
 Job number = 11, Threshold = 1.00E-08
Integral type ranges set in mkLRange.C for JobNum: 11  <1-21|22-22>
Total number of integrals generated =           63890
 Smallest overlap matrix eigenvalue = 8.15E-04
 Multipole matrices computed through 2nd order

 Scale SEOQF with 1.000000e-01/1.000000e-01/1.000000e-01

 Standard Electronic Orientation quadrupole field applied
 Nucleus-field energy     =     0.0000000034 hartrees
 ENuRep (before)= 77.5544919334
 ENucField = 0.0000000034
 ENuRep (after) = 77.5544919368
 Guess from superposition of atomic densities
 Warning:  Energy on first SCF cycle will be non-variational
 SAD guess density has 28.000000 electrons

 ==================================================
    GEN_SCFMAN: A general SCF calculation manager  
                                                   
    Authors:                                       
        -- Eric Jon Sundstrom 2008-2014            
        -- Paul Horn 2010-2015                     
        -- Yuezhi Mao 2012-                        
        -- Dmitri Zuev 2014                        
        -- Alec White 2015-                        
        -- David Stuck 2015                        
        -- Shaama M.S. 2015                        
        -- Shane Yost 2015-                         
        -- Joonho Lee 2016-                        
        -- David Small 2016-                       
        -- Daniel Levine 2016-                     
        -- Susi Lehtola 2017-                      
        -- Hugh Burton 2017-                       
 ==================================================
 Hartree-Fock
Finding J and K together
 Job number = 22, Threshold = 1.00E-08
Integral type ranges set in mkLRange.C for JobNum: 22  <1-21|1-21>
 MakeJK  time:  CPU       1.16 s  wall       1.20 s
 HF Exchange:              -22.62908433759815
 One-Electron:             -396.66715357680596
 Total Coulomb:            162.25485360731761
 Nuclear repulsion:         77.55449193683054
 A restricted SCF calculation will be
 performed using DIIS
 SCF converges when DIIS error is below 1.0e-05
 ---------------------------------------
  Cycle       Energy         DIIS error
 ---------------------------------------
Finding J and K together
 Job number = 22, Threshold = 1.00E-08
Integral type ranges set in mkLRange.C for JobNum: 22  <1-21|1-21>
 MakeJK  time:  CPU       3.34 s  wall       3.38 s
 HF Exchange:              -22.92884157895506
 One-Electron:             -399.96748624697960
 Total Coulomb:            166.09383672587904
 Nuclear repulsion:         77.55449193683054
    1    -179.4868923703      5.03e-02  
Finding J and K together
 Job number = 22, Threshold = 1.00E-08
Integral type ranges set in mkLRange.C for JobNum: 22  <1-21|1-21>
 MakeJK  time:  CPU       3.35 s  wall       3.38 s
 HF Exchange:              -22.84585814360503
 One-Electron:             -399.18013242737231
 Total Coulomb:            165.18770502198538
 Nuclear repulsion:         77.55449193683054
    2    -179.2479991632      5.17e-03  
Finding J and K together
 Job number = 22, Threshold = 1.00E-08
Integral type ranges set in mkLRange.C for JobNum: 22  <1-21|1-21>
 MakeJK  time:  CPU       3.30 s  wall       3.34 s
 HF Exchange:              -22.93458054776673
 One-Electron:             -399.67600383476275
 Total Coulomb:            165.76527783602958
 Nuclear repulsion:         77.55449193683054
    3    -179.2837936122      2.64e-03  
Finding J and K together
 Job number = 22, Threshold = 1.00E-08
Integral type ranges set in mkLRange.C for JobNum: 22  <1-21|1-21>
 MakeJK  time:  CPU       3.30 s  wall       3.33 s
 HF Exchange:              -22.92853694409928
 One-Electron:             -399.56969972377789
 Total Coulomb:            165.65238395618979
 Nuclear repulsion:         77.55449193683054
    4    -179.2908146097      5.73e-04  
Finding J and K together
 Job number = 22, Threshold = 1.00E-08
Integral type ranges set in mkLRange.C for JobNum: 22  <1-21|1-21>
 MakeJK  time:  CPU       3.31 s  wall       3.35 s
 HF Exchange:              -22.93256668549845
 One-Electron:             -399.59010832210146
 Total Coulomb:            165.67678988483792
 Nuclear repulsion:         77.55449193683054
    5    -179.2913607749      1.25e-04  
Finding J and K together
 Job number = 22, Threshold = 1.00E-08
Integral type ranges set in mkLRange.C for JobNum: 22  <1-21|1-21>
 MakeJK  time:  CPU       3.33 s  wall       3.36 s
 HF Exchange:              -22.93260308756345
 One-Electron:             -399.58670838557697
 Total Coulomb:            165.67342418090738
 Nuclear repulsion:         77.55449193683054
    6    -179.2913931859      2.76e-05  
    7    -179.2913953554      6.00e-06  Convergence criterion met
 ---------------------------------------
 SCF time:   CPU 21.45s  wall 21.00s 
 Total energy in the final basis set =     -179.2913953554
 HF Exchange:              -22.93260308756345
 One-Electron:             -399.58670838557697
 Total Coulomb:            165.67342418090738
 Nuclear repulsion:         77.55449193683054
Wall  1 = 22
Clock 1 = 21.51072883605957
 ==================================================
                  Done GEN_SCFMAN                  
 ==================================================

Symmetry turned off temporarily

 --------------------------------------------------------------

                    Orbital Energies (a.u.)
 --------------------------------------------------------------

 Alpha MOs
 -- Occupied --
-26.278 -11.307 -11.205  -1.589  -0.958  -0.944  -0.697  -0.696
 -0.676  -0.548  -0.546  -0.546  -0.531  -0.531
 -- Virtual --
  0.039   0.052   0.072   0.074   0.084   0.099   0.104   0.122
  0.143   0.158   0.171   0.182   0.199   0.218   0.221   0.275
  0.296   0.309   0.312   0.336   0.355   0.369   0.386   0.405
  0.413   0.435   0.532   0.538   0.540   0.572   0.576   0.710
  0.760   0.817   0.834   0.858   0.878   0.882   0.884   0.971
  1.056   1.120   1.212   1.218   1.276   1.294   1.615   1.650
  1.664   1.691   1.725   1.733   1.734   1.785   1.815   1.818
  1.832   1.889   1.960   1.968   1.989   2.142   2.211   2.211
  2.243   2.352   2.434   2.453   2.630   2.646   2.707   2.759
  2.774   2.796   2.813   2.814   2.866   2.881   2.939   2.947
  2.949   2.983   3.221   3.348   3.506   4.012   4.027   4.212
  4.213   4.224   4.286   4.288   4.575   4.581   5.309   6.980
  6.998   7.272  25.043  25.220  68.782
 --------------------------------------------------------------

          Ground-State Mulliken Net Atomic Charges

     Atom                 Charge (a.u.)
  ----------------------------------------
      1 C                    -0.153822
      2 F                    -0.238809
      3 H                     0.126148
      4 H                     0.126106
      5 H                     0.140911
      6 C                    -0.512208
      7 H                     0.124605
      8 H                     0.133379
      9 H                     0.120379
     10 H                     0.133312
  ----------------------------------------
  Sum of atomic charges =     0.000000

 -----------------------------------------------------------------
                    Cartesian Multipole Moments
 -----------------------------------------------------------------
    Charge (ESU x 10^10)
                 0.0000
    Dipole Moment (Debye)
         X      -0.0252      Y      -2.1424      Z       0.0000
       Tot       2.1425
    Quadrupole Moments (Debye-Ang)
        XX     -20.3191     XY      -2.9327     YY     -21.1025
        XZ      -0.0001     YZ       0.0000     ZZ     -20.1690
    Octopole Moments (Debye-Ang^2)
       XXX      12.6549    XXY      -1.7409    XYY       3.2264
       YYY       2.8918    XXZ      -0.0009    XYZ       0.0005
       YYZ       0.0019    XZZ       4.1340    YZZ       1.5449
       ZZZ      -0.0005
    Hexadecapole Moments (Debye-Ang^3)
      XXXX    -385.8347   XXXY      -4.4735   XXYY     -79.1044
      XYYY       5.6960   YYYY     -67.1392   XXXZ      -0.0202
      XXYZ       0.0017   XYYZ      -0.0031   YYYZ      -0.0008
      XXZZ     -75.1911   XYZZ       1.3603   YYZZ     -16.6856
      XZZZ       0.0090   YZZZ      -0.0035   ZZZZ     -32.1375
 -----------------------------------------------------------------
 Mayer SCF Bond Order, atomic valence on the diagonal:

            1           2           3           4           5           6
    1   3.8327974   0.8851770   0.9943454   0.9944616   0.9712435   0.0035838
    2   0.8851770   0.7598793  -0.0463431  -0.0464156  -0.0181835  -0.0272283
    3   0.9943454  -0.0463431   0.9188950  -0.0203179  -0.0154010   0.0074358
    4   0.9944616  -0.0464156  -0.0203179   0.9189569  -0.0153658   0.0073923
    5   0.9712435  -0.0181835  -0.0154010  -0.0153658   0.9197892  -0.0019732
    6   0.0035838  -0.0272283   0.0074358   0.0073923  -0.0019732   3.8730706
    7  -0.0020342  -0.0034739   0.0010377   0.0010402  -0.0004426   0.9786985
    8  -0.0054823   0.0062761  -0.0010230   0.0000875  -0.0002560   0.9674254
    9  -0.0029726   0.0037979  -0.0009239  -0.0009199   0.0004255   0.9702937
   10  -0.0055248   0.0062728   0.0000850  -0.0010056  -0.0002578   0.9674427
            7           8           9          10
    1  -0.0020342  -0.0054823  -0.0029726  -0.0055248
    2  -0.0034739   0.0062761   0.0037979   0.0062728
    3   0.0010377  -0.0010230  -0.0009239   0.0000850
    4   0.0010402   0.0000875  -0.0009199  -0.0010056
    5  -0.0004426  -0.0002560   0.0004255  -0.0002578
    6   0.9786985   0.9674254   0.9702937   0.9674427
    7   0.9387051  -0.0125369  -0.0110710  -0.0125126
    8  -0.0125369   0.9160206  -0.0208826  -0.0175875
    9  -0.0110710  -0.0208826   0.9168606  -0.0208866
   10  -0.0125126  -0.0175875  -0.0208866   0.9160256


 JobOver = TRUE
Archival summary:
1\1\qciep03\SP\HF\BasisUnspecified\127\jcartus\ThuFeb112:06:262018ThuFeb112:06:262018\0\\#,HF,BasisUnspecified,\\0,1\F\C,1,1.38063\H,2,1.08679,1,109.162\H,2,1.08681,1,109.163,3,-119.866,0\H,2,1.08696,1,109.11,3,120.068,0\H,3,2.83302,2,104.955,1,-51.7883,0\C,6,1.08535,3,102.245,2,-65.6887,0\H,7,1.08537,6,109.138,3,72.2927,0\H,7,1.08543,6,109.537,3,-167.792,0\H,7,1.08586,6,109.646,3,-47.8241,0\\HF=-179.291395\\@

 Total job time:  22.14s(wall), 21.81s(cpu) 
 Thu Feb  1 12:06:26 2018

        *************************************************************
        *                                                           *
        *  Thank you very much for using Q-Chem.  Have a nice day.  *
        *                                                           *
        *************************************************************


*** MISSION COMPLETED -- STARFLEET OUT ***

0 sent ACK to 0 
now end server 0 ... 
