Process 0 of 1 is on qciep03 - thread support 0
initial socket setup ...start
initial socket setup ...done 
now start server 0 ... 
qciep03.tugraz.at 127.0.1
Q-Chem Developer Version! Running on 127.0.1.*
                  Welcome to Q-Chem
     A Quantum Leap Into The Future Of Chemistry


 Q-Chem 5.0, Q-Chem, Inc., Pleasanton, CA (2017)

 Yihan Shao,  Zhengting Gan,  E. Epifanovsky,  A. T. B. Gilbert,  M. Wormit,  
 J. Kussmann,  A. W. Lange,  A. Behn,  Jia Deng,  Xintian Feng,  D. Ghosh,  
 M. Goldey,  P. R. Horn,  L. D. Jacobson,  I. Kaliman,  T. Kus,  A. Landau,  
 Jie Liu,  E. I. Proynov,  R. M. Richard,  R. P. Steele,  E. J. Sundstrom,  
 H. L. Woodcock III,  P. M. Zimmerman,  D. Zuev,  B. Albrecht,  E. Alguire,  
 S. A. Baeppler,  D. Barton,  Z. Benda,  Y. A. Bernard,  E. J. Berquist,  
 K. B. Bravaya,  H. Burton,  D. Casanova,  Chun-Min Chang,  Yunqing Chen,  
 A. Chien,  K. D. Closser,  M. P. Coons,  S. Dasgupta,  A. L. Dempwolff,  
 M. Diedenhofen,  Hainam Do,  R. G. Edgar,  Po-Tung Fang,  S. Fatehi,  
 Qingguo Feng,  J. Fosso-Tande,  Qinghui Ge,  A. Ghysels,  G. Gidofalvi,  
 J. Gomes,  J. Gonthier,  A. Gunina,  M. W. D. Hanson-Heine,  
 P. H. P. Harbach,  A. W. Hauser,  J. E. Herr,  E. G. Hohenstein,  
 Z. C. Holden,  Kerwin Hui,  T.-C. Jagau,  Hyunjun Ji,  B. Kaduk,  
 K. Khistyaev,  Jaehoon Kim,  P. Klunzinger,  K. Koh,  D. Kosenkov,  
 L. Koulias,  T. Kowalczyk,  C. M. Krauter,  A. Kunitsa,  Ka Un Lao,  
 A. Laurent,  K. V. Lawler,  Joonho Lee,  D. Lefrancois,  S. Lehtola,  
 D. S. Levine,  Yi-Pei Li,  You-Sheng Lin,  Fenglai Liu,  E. Livshits,  
 A. Luenser,  P. Manohar,  E. Mansoor,  S. F. Manzer,  Shan-Ping Mao,  
 Yuezhi Mao,  N. Mardirossian,  A. V. Marenich,  T. Markovich,  
 L. A. Martinez-Martinez,  S. A. Maurer,  N. J. Mayhall,  S. C. McKenzie,  
 J.-M. Mewes,  A. F. Morrison,  J. W. Mullinax,  K. Nanda,  
 T. S. Nguyen-Beck,  R. Olivares-Amaya,  J. A. Parkhill,  T. M. Perrine,  
 F. Plasser,  S. Prager,  A. Prociuk,  E. Ramos,  D. R. Rehn,  F. Rob,  
 M. Schneider,  N. Sergueev,  S. M. Sharada,  S. Sharma,  D. W. Small,  
 T. Stauch,  T. Stein,  Yu-Chuan Su,  A. J. W. Thom,  A. Tkatchenko,  
 T. Tsuchimochi,  L. Vogt,  O. Vydrov,  M. A. Watson,  J. Wenzel,  
 M. de Wergifosse,  T. A. Wesolowski,  A. White,  J. Witte,  A. Yamada,  
 Jun Yang,  K. Yao,  S. Yeganeh,  S. R. Yost,  Zhi-Qiang You,  A. Zech,  
 Igor Ying Zhang,  Xing Zhang,  Yan Zhao,  Ying Zhu,  B. R. Brooks,  
 G. K. L. Chan,  C. J. Cramer,  M. S. Gordon,  W. J. Hehre,  A. Klamt,  
 M. W. Schmidt,  C. D. Sherrill,  D. G. Truhlar,  A. Aspuru-Guzik,  R. Baer,  
 A. T. Bell,  N. A. Besley,  Jeng-Da Chai,  R. A. DiStasio Jr.,  A. Dreuw,  
 B. D. Dunietz,  T. R. Furlani,  Chao-Ping Hsu,  Yousung Jung,  Jing Kong,  
 D. S. Lambrecht,  WanZhen Liang,  C. Ochsenfeld,  V. A. Rassolov,  
 L. V. Slipchenko,  J. E. Subotnik,  T. Van Voorhis,  J. M. Herbert,  
 A. I. Krylov,  P. M. W. Gill,  M. Head-Gordon

 Contributors to earlier versions of Q-Chem not listed above: 
 R. D. Adamson,  B. Austin,  J. Baker,  G. J. O. Beran,  K. Brandhorst,  
 S. T. Brown,  E. F. C. Byrd,  A. K. Chakraborty,  C.-L. Cheng,  
 Siu Hung Chien,  D. M. Chipman,  D. L. Crittenden,  H. Dachsel,  
 R. J. Doerksen,  A. D. Dutoi,  L. Fusti-Molnar,  W. A. Goddard III,  
 A. Golubeva-Zadorozhnaya,  S. R. Gwaltney,  G. Hawkins,  A. Heyden,  
 S. Hirata,  G. Kedziora,  F. J. Keil,  C. Kelley,  Jihan Kim,  R. A. King,  
 R. Z. Khaliullin,  P. P. Korambath,  W. Kurlancheek,  A. M. Lee,  M. S. Lee,  
 S. V. Levchenko,  Ching Yeh Lin,  D. Liotard,  R. C. Lochan,  I. Lotan,  
 P. E. Maslen,  N. Nair,  D. P. O'Neill,  D. Neuhauser,  E. Neuscamman,  
 C. M. Oana,  R. Olson,  B. Peters,  R. Peverati,  P. A. Pieniazek,  
 Y. M. Rhee,  J. Ritchie,  M. A. Rohrdanz,  E. Rosta,  N. J. Russ,  
 H. F. Schaefer III,  N. E. Schultz,  N. Shenvi,  A. C. Simmonett,  A. Sodt,  
 D. Stuck,  K. S. Thanthiriwatte,  V. Vanovschi,  Tao Wang,  A. Warshel,  
 C. F. Williams,  Q. Wu,  X. Xu,  W. Zhang

 Please cite Q-Chem as follows:
 Y. Shao et al., Mol. Phys. 113, 184-215 (2015)
 DOI: 10.1080/00268976.2014.952696

 Q-Chem 5.0.2 for Intel X86 EM64T Linux

 Parts of Q-Chem use Armadillo 5.200.1 (Boston Tea Smuggler).
 http://arma.sourceforge.net/

 Q-Chem begins on Thu Feb  1 12:06:45 2018  


Host: 0

     Scratch files written to /home/jcartus/scratch/24_benI-Nm3_mono1.dir//
 Using version located at /usr/local/qchem/bin/qchem

 Parallel job on  1  processors

Total Memory Limit in MB = 2000
Mega-Array Size in MB = 192

Checking the input file for inconsistencies... 	...done.
Finally everything over in PARseQInput

--------------------------------------------------------------
User input:
--------------------------------------------------------------
$rem
SCF_PRINT                     1
BASIS                         6-311++g**
SCF_SAVE_MATRICES             1
SCF_CONVERGENCE               5
SCF_FINAL_PRINT               1
METHOD                        hf
JOBTYPE                       sp
$end

$molecule
0 1
C    1.037288    0.000539    -0.582102
C    -0.176487    -0.000271    0.102715
C    -0.183174    -0.000518    1.498133
C    1.01988    4e-05    2.205172
C    2.228616    0.000848    1.511505
C    2.241753    0.001096    0.118273
I    -2.004073    -0.001696    2.534377
H    1.013157    -0.000135    3.286244
H    3.159115    0.001279    2.063225
H    3.181398    0.001715    -0.416415
H    1.038283    0.000729    -1.663869
H    -1.109304    -0.000688    -0.443732
$end


--------------------------------------------------------------
 ----------------------------------------------------------------
             Standard Nuclear Orientation (Angstroms)
    I     Atom           X                Y                Z
 ----------------------------------------------------------------
    1      C       2.6368464850     1.2043974045     0.0000040495
    2      C       1.2432186795     1.2095228050    -0.0000101760
    3      C       0.5472496461     0.0000339558    -0.0000154983
    4      C       1.2431640782    -1.2094892928    -0.0000099457
    5      C       2.6367894539    -1.2044306854     0.0000035897
    6      C       3.3372831898    -0.0000318420     0.0000066765
    7      I      -1.5478580318     0.0000007954     0.0000018334
    8      H       0.7026355658    -2.1457535854     0.0000031521
    9      H       3.1726377257    -2.1441594562     0.0000081299
   10      H       4.4184049988    -0.0000570442     0.0000088535
   11      H       3.1727403832     2.1440987391     0.0000090375
   12      H       0.7027478158     2.1458151197     0.0000014797
 ----------------------------------------------------------------
 Molecular Point Group                 C1    NOp =  1
 Largest Abelian Subgroup              C1    NOp =  1
 Nuclear Repulsion Energy =   530.5481681024 hartrees
 There are       47 alpha and       47 beta electrons
 Requested basis set is 6-311++G(d,p)
 There are 85 shells and 229 basis functions

 Total QAlloc Memory Limit   2000 MB
 Mega-Array Size       188 MB
 MEM_STATIC part       192 MB

finished with qalloc call

                       Distance Matrix (Angstroms)
             C (  1)   C (  2)   C (  3)   C (  4)   C (  5)   C (  6)
   C (  2)  1.393637
   C (  3)  2.411826  1.395434
   C (  4)  2.787328  2.419012  1.395437
   C (  5)  2.408828  2.787330  2.411827  1.393635
   C (  6)  1.393292  2.418290  2.790034  2.418289  1.393294
   I (  7)  4.354575  3.041883  2.095108  3.041820  4.354530  4.885141
   H (  8)  3.868421  3.398545  2.151406  1.081093  2.151056  3.397865
   H (  9)  3.391151  3.869088  3.389724  2.143940  1.081769  2.150440
   H ( 10)  2.150503  3.397777  3.871155  3.397776  2.150505  1.081122
   H ( 11)  1.081767  2.143942  3.389722  3.869085  3.391149  2.150435
   H ( 12)  2.151047  1.081088  2.151408  3.398546  3.868419  3.397858
             I (  7)   H (  8)   H (  9)   H ( 10)   H ( 11)
   H (  8)  3.109499
   H (  9)  5.184641  2.470003
   H ( 10)  5.966263  4.290799  2.479740
   H ( 11)  5.184709  4.950177  4.288258  2.479735
   H ( 12)  3.109621  4.291569  4.950176  4.290790  2.469993

 Job number = 2, Threshold = 1.00E-08
Integral type ranges set in mkLRange.C for JobNum: 2  <1-21|1-21>
Symmetry turned off temporarily
 Using the largest function pair in Schwarz integrals
Total number of integrals generated =          383428
Symmetry turned back on
 A cutoff of  1.0D-08 yielded   2952 shell pairs
 There are     22262 function pairs (     24394 Cartesian)
 Job number = 11, Threshold = 1.00E-08
Integral type ranges set in mkLRange.C for JobNum: 11  <1-21|22-22>
Total number of integrals generated =          290976
 Smallest overlap matrix eigenvalue = 1.36E-06

 Q-Chem warning in module /usr/local/qchem/stvman/mkSTV.C, line 295:

 Overlap eigenvalue is smaller than square root of threshold

 Multipole matrices computed through 2nd order

 Scale SEOQF with 1.000000e-01/1.000000e-01/1.000000e-01

 Standard Electronic Orientation quadrupole field applied
 Nucleus-field energy     =     0.0000000159 hartrees
 ENuRep (before)= 530.5481681024
 ENucField = 0.0000000159
 ENuRep (after) = 530.5481681183
 Guess from superposition of atomic densities
 Warning:  Energy on first SCF cycle will be non-variational
 SAD guess density has 94.000000 electrons

 ==================================================
    GEN_SCFMAN: A general SCF calculation manager  
                                                   
    Authors:                                       
        -- Eric Jon Sundstrom 2008-2014            
        -- Paul Horn 2010-2015                     
        -- Yuezhi Mao 2012-                        
        -- Dmitri Zuev 2014                        
        -- Alec White 2015-                        
        -- David Stuck 2015                        
        -- Shaama M.S. 2015                        
        -- Shane Yost 2015-                         
        -- Joonho Lee 2016-                        
        -- David Small 2016-                       
        -- Daniel Levine 2016-                     
        -- Susi Lehtola 2017-                      
        -- Hugh Burton 2017-                       
 ==================================================
 Hartree-Fock
Finding J and K together
 Job number = 22, Threshold = 1.00E-08
Integral type ranges set in mkLRange.C for JobNum: 22  <1-21|1-21>
 MakeJK  time:  CPU      12.53 s  wall      13.44 s
 HF Exchange:              -207.84551087998560
 One-Electron:             -10871.08980270577558
 Total Coulomb:            3398.72115359729014
 Nuclear repulsion:        530.54816811833780
 A restricted SCF calculation will be
 performed using DIIS
 SCF converges when DIIS error is below 1.0e-05
 ---------------------------------------
  Cycle       Energy         DIIS error
 ---------------------------------------
Finding J and K together
 Job number = 22, Threshold = 1.00E-08
Integral type ranges set in mkLRange.C for JobNum: 22  <1-21|1-21>
 MakeJK  time:  CPU      37.48 s  wall      39.86 s
 HF Exchange:              -206.58720524589501
 One-Electron:             -10871.47848267086374
 Total Coulomb:            3400.61697522630175
 Nuclear repulsion:        530.54816811833780
    1   -7149.6659918701      4.15e-02  
Finding J and K together
 Job number = 22, Threshold = 1.00E-08
Integral type ranges set in mkLRange.C for JobNum: 22  <1-21|1-21>
 MakeJK  time:  CPU      35.66 s  wall      38.09 s
 HF Exchange:              -206.77263215263903
 One-Electron:             -10874.95013195461433
 Total Coulomb:            3404.20670295857872
 Nuclear repulsion:        530.54816811833780
    2   -7146.9005445721      2.87e-03  
Finding J and K together
 Job number = 22, Threshold = 1.00E-08
Integral type ranges set in mkLRange.C for JobNum: 22  <1-21|1-21>
 MakeJK  time:  CPU      37.58 s  wall      37.99 s
 HF Exchange:              -206.74858786657504
 One-Electron:             -10873.25608661817751
 Total Coulomb:            3402.47887787994887
 Nuclear repulsion:        530.54816811833780
    3   -7146.9678930303      1.29e-03  
Finding J and K together
 Job number = 22, Threshold = 1.00E-08
Integral type ranges set in mkLRange.C for JobNum: 22  <1-21|1-21>
 MakeJK  time:  CPU      32.69 s  wall      33.38 s
 HF Exchange:              -206.76375037589546
 One-Electron:             -10873.70347786129059
 Total Coulomb:            3402.93830547203788
 Nuclear repulsion:        530.54816811833780
    4   -7146.9776284865      6.06e-04  
Finding J and K together
 Job number = 22, Threshold = 1.00E-08
Integral type ranges set in mkLRange.C for JobNum: 22  <1-21|1-21>
 MakeJK  time:  CPU      34.35 s  wall      34.53 s
 HF Exchange:              -206.76838162569842
 One-Electron:             -10873.77513201932925
 Total Coulomb:            3403.01446899433358
 Nuclear repulsion:        530.54816811833780
    5   -7146.9807546468      1.25e-04  
Finding J and K together
 Job number = 22, Threshold = 1.00E-08
Integral type ranges set in mkLRange.C for JobNum: 22  <1-21|1-21>
 MakeJK  time:  CPU      35.30 s  wall      36.38 s
 HF Exchange:              -206.76785325949604
 One-Electron:             -10873.73814594165924
 Total Coulomb:            3402.97693154772514
 Nuclear repulsion:        530.54816811833780
    6   -7146.9808765324      3.70e-05  
Finding J and K together
 Job number = 22, Threshold = 1.00E-08
Integral type ranges set in mkLRange.C for JobNum: 22  <1-21|1-21>
 MakeJK  time:  CPU      37.36 s  wall      37.46 s
 HF Exchange:              -206.76809104168271
 One-Electron:             -10873.73922844035224
 Total Coulomb:            3402.97824751097278
 Nuclear repulsion:        530.54816811833780
    7   -7146.9808995351      1.38e-05  
    8   -7146.9809038527      4.79e-06  Convergence criterion met
 ---------------------------------------
 SCF time:   CPU 265.64s  wall 274.00s 
 Total energy in the final basis set =    -7146.9809038527
 HF Exchange:              -206.76809104168271
 One-Electron:             -10873.73922844035224
 Total Coulomb:            3402.97824751097278
 Nuclear repulsion:        530.54816811833780
Wall  1 = 274
Clock 1 = 265.96228027343750
 ==================================================
                  Done GEN_SCFMAN                  
 ==================================================

Symmetry turned off temporarily

 --------------------------------------------------------------

                    Orbital Energies (a.u.)
 --------------------------------------------------------------

 Alpha MOs
 -- Occupied --
*******-180.862-169.669-169.668-169.668 -37.916 -33.104 -33.100
-33.100 -24.288 -24.287 -24.287 -24.283 -24.283 -11.296 -11.257
-11.257 -11.253 -11.253 -11.251  -7.233  -5.466  -5.456  -5.456
 -2.390  -2.385  -2.385  -2.373  -2.373  -1.173  -1.041  -1.035
 -0.875  -0.847  -0.798  -0.709  -0.645  -0.643  -0.607  -0.565
 -0.528  -0.516  -0.467  -0.406  -0.373  -0.353  -0.327
 -- Virtual --
  0.038   0.047   0.053   0.070   0.075   0.094   0.096   0.103
  0.125   0.135   0.146   0.157   0.162   0.163   0.177   0.178
  0.191   0.200   0.200   0.203   0.206   0.213   0.217   0.219
  0.226   0.228   0.252   0.271   0.280   0.294   0.296   0.326
  0.329   0.332   0.365   0.385   0.398   0.402   0.414   0.428
  0.439   0.480   0.489   0.503   0.517   0.589   0.590   0.599
  0.619   0.654   0.676   0.704   0.712   0.719   0.720   0.730
  0.744   0.744   0.764   0.784   0.806   0.831   0.861   0.869
  0.888   0.897   0.931   0.951   0.976   0.999   1.015   1.030
  1.043   1.061   1.087   1.109   1.111   1.134   1.151   1.189
  1.230   1.243   1.244   1.308   1.340   1.374   1.458   1.506
  1.555   1.616   1.659   1.741   1.755   1.777   1.780   1.792
  1.821   1.828   1.881   1.906   1.911   1.970   1.992   2.003
  2.042   2.098   2.116   2.211   2.214   2.219   2.232   2.238
  2.278   2.309   2.328   2.361   2.364   2.584   2.627   2.642
  2.728   2.768   2.794   2.846   2.948   2.965   2.987   3.006
  3.020   3.035   3.036   3.050   3.099   3.161   3.175   3.180
  3.272   3.277   3.309   3.456   3.469   3.545   3.755   3.775
  3.895   3.904   4.012   4.143   4.393   4.453   4.501   4.527
  4.550   4.555   4.561   4.682   4.827   5.008   5.259   6.571
  6.660   6.730  24.680  25.071  25.119  25.218  25.245  25.343
 29.075  29.562  29.632  29.656  29.892  29.910  29.918  29.973
 30.068 130.618 130.672 130.706 154.4441912.368
 --------------------------------------------------------------

          Ground-State Mulliken Net Atomic Charges

     Atom                 Charge (a.u.)
  ----------------------------------------
      1 C                    -0.053866
      2 C                    -0.692671
      3 C                     0.931328
      4 C                    -0.692615
      5 C                    -0.053891
      6 C                    -0.391347
      7 I                    -0.023876
      8 H                     0.179397
      9 H                     0.209977
     10 H                     0.198193
     11 H                     0.209977
     12 H                     0.179393
  ----------------------------------------
  Sum of atomic charges =    -0.000000

 -----------------------------------------------------------------
                    Cartesian Multipole Moments
 -----------------------------------------------------------------
    Charge (ESU x 10^10)
                -0.0000
    Dipole Moment (Debye)
         X       1.9946      Y      -0.0000      Z       0.0000
       Tot       1.9946
    Quadrupole Moments (Debye-Ang)
        XX     -57.0543     XY       0.0002     YY     -59.0847
        XZ       0.0000     YZ      -0.0000     ZZ     -69.4648
    Octopole Moments (Debye-Ang^2)
       XXX     -52.9882    XXY      -0.0003    XYY     -12.9940
       YYY       0.0001    XXZ       0.0003    XYZ       0.0000
       YYZ       0.0002    XZZ     -33.0539    YZZ       0.0000
       ZZZ       0.0002
    Hexadecapole Moments (Debye-Ang^3)
      XXXX   -1367.8797   XXXY       0.0013   XXYY    -289.3071
      XYYY       0.0004   YYYY    -302.9491   XXXZ       0.0001
      XXYZ       0.0000   XYYZ       0.0002   YYYZ      -0.0000
      XXZZ    -304.4855   XYZZ       0.0000   YYZZ     -78.7369
      XZZZ      -0.0001   YZZZ      -0.0000   ZZZZ     -91.8491
 -----------------------------------------------------------------
 Mayer SCF Bond Order, atomic valence on the diagonal:

            1           2           3           4           5           6
    1   4.0868811   1.5698123  -0.1136353  -0.1004580  -0.0602637   1.8420688
    2   1.5698123   4.8198540   1.5533451   0.3107675  -0.1004598   0.0352979
    3  -0.1136353   1.5533451   2.5780554   1.5533139  -0.1136429   0.0263972
    4  -0.1004580   0.3107675   1.5533139   4.8198655   1.5698710   0.0352701
    5  -0.0602637  -0.1004598  -0.1136429   1.5698710   4.0869356   1.8420672
    6   1.8420688   0.0352979   0.0263972   0.0352701   1.8420672   4.7388176
    7  -0.0010794   0.5843466  -0.3592717   0.5843364  -0.0010724   0.0467231
    8  -0.0014741   0.0032397   0.0330850   0.8372401   0.0655145  -0.0140987
    9  -0.0197218   0.0035942  -0.0249105   0.0596485   0.7956430   0.0895872
   10   0.1104783  -0.0369624   0.0151731  -0.0369629   0.1104764   0.7600232
   11   0.7956464   0.0596455  -0.0249076   0.0035957  -0.0197241   0.0895831
   12   0.0655077   0.8372273   0.0331090   0.0032432  -0.0014736  -0.0141013
            7           8           9          10          11          12
    1  -0.0010794  -0.0014741  -0.0197218   0.1104783   0.7956464   0.0655077
    2   0.5843466   0.0032397   0.0035942  -0.0369624   0.0596455   0.8372273
    3  -0.3592717   0.0330850  -0.0249105   0.0151731  -0.0249076   0.0331090
    4   0.5843364   0.8372401   0.0596485  -0.0369629   0.0035957   0.0032432
    5  -0.0010724   0.0655145   0.7956430   0.1104764  -0.0197241  -0.0014736
    6   0.0467231  -0.0140987   0.0895872   0.7600232   0.0895831  -0.0141013
    7   0.9467162   0.0464846  -0.0002296   0.0002226  -0.0002298   0.0464857
    8   0.0464846   0.9815776   0.0088024   0.0007287  -0.0000415   0.0020970
    9  -0.0002296   0.0088024   0.9238184   0.0108044   0.0006422  -0.0000415
   10   0.0002226   0.0007287   0.0108044   0.9455145   0.0108044   0.0007287
   11  -0.0002298  -0.0000415   0.0006422   0.0108044   0.9238166   0.0088022
   12   0.0464857   0.0020970  -0.0000415   0.0007287   0.0088022   0.9815844


 JobOver = TRUE
Archival summary:
1\1\qciep03\SP\HF\BasisUnspecified\165\jcartus\ThuFeb112:11:202018ThuFeb112:11:202018\0\\#,HF,BasisUnspecified,\\0,1\I\C,1,2.09511\C,2,1.39543,1,119.918\H,3,1.08109,2,120.087,1,-0,0\C,3,1.39364,2,119.706,1,179.999,0\H,5,1.08177,3,119.485,2,-180,0\C,5,1.39329,3,120.391,2,0,0\H,7,1.08112,5,120.182,3,180,0\C,7,1.39329,5,119.637,3,-0,0\H,9,1.08177,7,120.125,5,-180,0\C,9,1.39363,7,120.391,5,0,0\H,11,1.08109,9,120.207,7,-179.999,0\\HF=-7146.9809\\@

 Total job time:  275.33s(wall), 266.99s(cpu) 
 Thu Feb  1 12:11:20 2018

        *************************************************************
        *                                                           *
        *  Thank you very much for using Q-Chem.  Have a nice day.  *
        *                                                           *
        *************************************************************


*** MISSION COMPLETED -- STARFLEET OUT ***

0 sent ACK to 0 
now end server 0 ... 
