Process 0 of 1 is on qciep03 - thread support 0
initial socket setup ...start
initial socket setup ...done 
now start server 0 ... 
qciep03.tugraz.at 127.0.1
Q-Chem Developer Version! Running on 127.0.1.*
                  Welcome to Q-Chem
     A Quantum Leap Into The Future Of Chemistry


 Q-Chem 5.0, Q-Chem, Inc., Pleasanton, CA (2017)

 Yihan Shao,  Zhengting Gan,  E. Epifanovsky,  A. T. B. Gilbert,  M. Wormit,  
 J. Kussmann,  A. W. Lange,  A. Behn,  Jia Deng,  Xintian Feng,  D. Ghosh,  
 M. Goldey,  P. R. Horn,  L. D. Jacobson,  I. Kaliman,  T. Kus,  A. Landau,  
 Jie Liu,  E. I. Proynov,  R. M. Richard,  R. P. Steele,  E. J. Sundstrom,  
 H. L. Woodcock III,  P. M. Zimmerman,  D. Zuev,  B. Albrecht,  E. Alguire,  
 S. A. Baeppler,  D. Barton,  Z. Benda,  Y. A. Bernard,  E. J. Berquist,  
 K. B. Bravaya,  H. Burton,  D. Casanova,  Chun-Min Chang,  Yunqing Chen,  
 A. Chien,  K. D. Closser,  M. P. Coons,  S. Dasgupta,  A. L. Dempwolff,  
 M. Diedenhofen,  Hainam Do,  R. G. Edgar,  Po-Tung Fang,  S. Fatehi,  
 Qingguo Feng,  J. Fosso-Tande,  Qinghui Ge,  A. Ghysels,  G. Gidofalvi,  
 J. Gomes,  J. Gonthier,  A. Gunina,  M. W. D. Hanson-Heine,  
 P. H. P. Harbach,  A. W. Hauser,  J. E. Herr,  E. G. Hohenstein,  
 Z. C. Holden,  Kerwin Hui,  T.-C. Jagau,  Hyunjun Ji,  B. Kaduk,  
 K. Khistyaev,  Jaehoon Kim,  P. Klunzinger,  K. Koh,  D. Kosenkov,  
 L. Koulias,  T. Kowalczyk,  C. M. Krauter,  A. Kunitsa,  Ka Un Lao,  
 A. Laurent,  K. V. Lawler,  Joonho Lee,  D. Lefrancois,  S. Lehtola,  
 D. S. Levine,  Yi-Pei Li,  You-Sheng Lin,  Fenglai Liu,  E. Livshits,  
 A. Luenser,  P. Manohar,  E. Mansoor,  S. F. Manzer,  Shan-Ping Mao,  
 Yuezhi Mao,  N. Mardirossian,  A. V. Marenich,  T. Markovich,  
 L. A. Martinez-Martinez,  S. A. Maurer,  N. J. Mayhall,  S. C. McKenzie,  
 J.-M. Mewes,  A. F. Morrison,  J. W. Mullinax,  K. Nanda,  
 T. S. Nguyen-Beck,  R. Olivares-Amaya,  J. A. Parkhill,  T. M. Perrine,  
 F. Plasser,  S. Prager,  A. Prociuk,  E. Ramos,  D. R. Rehn,  F. Rob,  
 M. Schneider,  N. Sergueev,  S. M. Sharada,  S. Sharma,  D. W. Small,  
 T. Stauch,  T. Stein,  Yu-Chuan Su,  A. J. W. Thom,  A. Tkatchenko,  
 T. Tsuchimochi,  L. Vogt,  O. Vydrov,  M. A. Watson,  J. Wenzel,  
 M. de Wergifosse,  T. A. Wesolowski,  A. White,  J. Witte,  A. Yamada,  
 Jun Yang,  K. Yao,  S. Yeganeh,  S. R. Yost,  Zhi-Qiang You,  A. Zech,  
 Igor Ying Zhang,  Xing Zhang,  Yan Zhao,  Ying Zhu,  B. R. Brooks,  
 G. K. L. Chan,  C. J. Cramer,  M. S. Gordon,  W. J. Hehre,  A. Klamt,  
 M. W. Schmidt,  C. D. Sherrill,  D. G. Truhlar,  A. Aspuru-Guzik,  R. Baer,  
 A. T. Bell,  N. A. Besley,  Jeng-Da Chai,  R. A. DiStasio Jr.,  A. Dreuw,  
 B. D. Dunietz,  T. R. Furlani,  Chao-Ping Hsu,  Yousung Jung,  Jing Kong,  
 D. S. Lambrecht,  WanZhen Liang,  C. Ochsenfeld,  V. A. Rassolov,  
 L. V. Slipchenko,  J. E. Subotnik,  T. Van Voorhis,  J. M. Herbert,  
 A. I. Krylov,  P. M. W. Gill,  M. Head-Gordon

 Contributors to earlier versions of Q-Chem not listed above: 
 R. D. Adamson,  B. Austin,  J. Baker,  G. J. O. Beran,  K. Brandhorst,  
 S. T. Brown,  E. F. C. Byrd,  A. K. Chakraborty,  C.-L. Cheng,  
 Siu Hung Chien,  D. M. Chipman,  D. L. Crittenden,  H. Dachsel,  
 R. J. Doerksen,  A. D. Dutoi,  L. Fusti-Molnar,  W. A. Goddard III,  
 A. Golubeva-Zadorozhnaya,  S. R. Gwaltney,  G. Hawkins,  A. Heyden,  
 S. Hirata,  G. Kedziora,  F. J. Keil,  C. Kelley,  Jihan Kim,  R. A. King,  
 R. Z. Khaliullin,  P. P. Korambath,  W. Kurlancheek,  A. M. Lee,  M. S. Lee,  
 S. V. Levchenko,  Ching Yeh Lin,  D. Liotard,  R. C. Lochan,  I. Lotan,  
 P. E. Maslen,  N. Nair,  D. P. O'Neill,  D. Neuhauser,  E. Neuscamman,  
 C. M. Oana,  R. Olson,  B. Peters,  R. Peverati,  P. A. Pieniazek,  
 Y. M. Rhee,  J. Ritchie,  M. A. Rohrdanz,  E. Rosta,  N. J. Russ,  
 H. F. Schaefer III,  N. E. Schultz,  N. Shenvi,  A. C. Simmonett,  A. Sodt,  
 D. Stuck,  K. S. Thanthiriwatte,  V. Vanovschi,  Tao Wang,  A. Warshel,  
 C. F. Williams,  Q. Wu,  X. Xu,  W. Zhang

 Please cite Q-Chem as follows:
 Y. Shao et al., Mol. Phys. 113, 184-215 (2015)
 DOI: 10.1080/00268976.2014.952696

 Q-Chem 5.0.2 for Intel X86 EM64T Linux

 Parts of Q-Chem use Armadillo 5.200.1 (Boston Tea Smuggler).
 http://arma.sourceforge.net/

 Q-Chem begins on Thu Jan 25 17:41:26 2018  


Host: 0

     Scratch files written to /home/jcartus/scratch/Benzene-ammonia-complex_mono2.dir//
 Using version located at /usr/local/qchem/bin/qchem

 Parallel job on  1  processors

Total Memory Limit in MB = 2000
Mega-Array Size in MB = 192

Checking the input file for inconsistencies... 	...done.
Finally everything over in PARseQInput

--------------------------------------------------------------
User input:
--------------------------------------------------------------
$rem
SCF_PRINT                     1
BASIS                         6-311++g**
SCF_SAVE_MATRICES             1
SCF_CONVERGENCE               5
SCF_FINAL_PRINT               1
METHOD                        hf
JOBTYPE                       sp
$end

$molecule
0 1
C    -0.739281    0.5158785    -1.2071079
C    -1.4261442    0.3965455    0.0
C    -0.739281    0.5158785    1.2071079
C    0.6342269    0.7546398    1.2070735
C    1.3210434    0.8737566    0.0
C    0.6342269    0.7546398    -1.2070735
H    -1.2719495    0.4206316    -2.1432894
H    -2.4902205    0.2052381    0.0
H    -1.2719495    0.4206316    2.1432894
H    1.1668005    0.8474885    2.143695
H    2.3863585    1.0596312    0.0
H    1.1668005    0.8474885    -2.143695
$end


--------------------------------------------------------------
 I,J,IOp=           1           3           2  D=   1.1124306961121286E-013 Fix sym
 I, IOp=           2           2  D=   1.1102230246251565E-013 Fix sym
 I,J,IOp=           4           6           2  D=   1.1127564127028627E-013 Fix sym
 I, IOp=           5           2  D=   1.1102230246251565E-013 Fix sym
 I,J,IOp=           7           9           2  D=   1.9774777478271329E-013 Fix sym
 I, IOp=           8           2  D=   1.9806378759312793E-013 Fix sym
 I,J,IOp=          10          12           2  D=   1.9780810200379852E-013 Fix sym
 I, IOp=          11           2  D=   1.9717560917342780E-013 Fix sym
 ----------------------------------------------------------------
             Standard Nuclear Orientation (Angstroms)
    I     Atom           X                Y                Z
 ----------------------------------------------------------------
    1      C      -0.6970217833    -0.0005475396     1.2071079000
    2      C      -1.3941740681    -0.0008823868    -0.0000000000
    3      C      -0.6970217833    -0.0005475396    -1.2071079000
    4      C       0.6970838870    -0.0000092353    -1.2070735000
    5      C       1.3941530553     0.0005305875     0.0000000000
    6      C       0.6970838870    -0.0000092353     1.2070735000
    7      H      -1.2381335342     0.0018557670     2.1432894000
    8      H      -2.4752952308     0.0049421447    -0.0000000000
    9      H      -1.2381335342     0.0018557670    -2.1432894000
   10      H       1.2376905067    -0.0000662231    -2.1436950000
   11      H       2.4755621184     0.0002708610     0.0000000000
   12      H       1.2376905067    -0.0000662231     2.1436950000
 ----------------------------------------------------------------
 Molecular Point Group                 Cs    NOp =  2
 Largest Abelian Subgroup              Cs    NOp =  2
 Nuclear Repulsion Energy =   203.6727536611 hartrees
 There are       21 alpha and       21 beta electrons
 Requested basis set is 6-311++G(d,p)
 There are 66 shells and 174 basis functions

 Total QAlloc Memory Limit   2000 MB
 Mega-Array Size       188 MB
 MEM_STATIC part       192 MB

finished with qalloc call

                       Distance Matrix (Angstroms)
             C (  1)   C (  2)   C (  3)   C (  4)   C (  5)   C (  6)
   C (  2)  1.393962
   C (  3)  2.414216  1.393962
   C (  4)  2.787795  2.414619  1.394106
   C (  5)  2.414565  2.788327  2.414565  1.393891
   C (  6)  1.394106  2.414619  2.787795  2.414147  1.393891
   H (  7)  1.081316  2.148964  3.393813  3.869109  3.394499  2.149784
   H (  8)  2.149278  1.081137  2.149278  3.394266  3.869451  3.394266
   H (  9)  3.393813  2.148964  1.081316  2.149784  3.394499  3.869109
   H ( 10)  3.869237  3.394428  2.149490  1.081441  2.149397  3.394099
   H ( 11)  3.394466  3.869736  3.394466  2.149421  1.081409  2.149421
   H ( 12)  2.149490  3.394428  3.869237  3.394099  2.149397  1.081441
             H (  7)   H (  8)   H (  9)   H ( 10)   H ( 11)
   H (  8)  2.474726
   H (  9)  4.286579  2.474726
   H ( 10)  4.950550  4.287390  2.475825
   H ( 11)  4.287800  4.950860  4.287800  2.475430
   H ( 12)  2.475825  4.287390  4.950550  4.287390  2.475430

 Job number = 2, Threshold = 1.00E-08
Integral type ranges set in mkLRange.C for JobNum: 2  <1-21|1-21>
Symmetry turned off temporarily
 Using the largest function pair in Schwarz integrals
Total number of integrals generated =          233997
Symmetry turned back on
 A cutoff of  1.0D-08 yielded   2055 shell pairs
 There are     14694 function pairs (     15765 Cartesian)
 Job number = 11, Threshold = 1.00E-08
Integral type ranges set in mkLRange.C for JobNum: 11  <1-21|22-22>
Total number of integrals generated =          106440
 Smallest overlap matrix eigenvalue = 1.07E-06

 Q-Chem warning in module /usr/local/qchem/stvman/mkSTV.C, line 295:

 Overlap eigenvalue is smaller than square root of threshold

 Multipole matrices computed through 2nd order

 Scale SEOQF with 1.000000e-01/1.000000e-01/1.000000e-01

 Standard Electronic Orientation quadrupole field applied
 Nucleus-field energy     =    -0.0000000038 hartrees
 ENuRep (before)= 203.6727536611
 ENucField = -0.0000000038
 ENuRep (after) = 203.6727536573
 Guess from superposition of atomic densities
 Warning:  Energy on first SCF cycle will be non-variational
 SAD guess density has 42.000000 electrons

 ==================================================
    GEN_SCFMAN: A general SCF calculation manager  
                                                   
    Authors:                                       
        -- Eric Jon Sundstrom 2008-2014            
        -- Paul Horn 2010-2015                     
        -- Yuezhi Mao 2012-                        
        -- Dmitri Zuev 2014                        
        -- Alec White 2015-                        
        -- David Stuck 2015                        
        -- Shaama M.S. 2015                        
        -- Shane Yost 2015-                         
        -- Joonho Lee 2016-                        
        -- David Small 2016-                       
        -- Daniel Levine 2016-                     
        -- Susi Lehtola 2017-                      
        -- Hugh Burton 2017-                       
 ==================================================
 Hartree-Fock
Finding J and K together
 Job number = 22, Threshold = 1.00E-08
Integral type ranges set in mkLRange.C for JobNum: 22  <1-21|1-21>
 MakeJK  time:  CPU       2.87 s  wall       3.05 s
 HF Exchange:              -34.15082371730552
 One-Electron:             -709.30186146821495
 Total Coulomb:            306.52762237489105
 Nuclear repulsion:        203.67275365731808
 A restricted SCF calculation will be
 performed using DIIS
 SCF converges when DIIS error is below 1.0e-05
 ---------------------------------------
  Cycle       Energy         DIIS error
 ---------------------------------------
Finding J and K together
 Job number = 22, Threshold = 1.00E-08
Integral type ranges set in mkLRange.C for JobNum: 22  <1-21|1-21>
 MakeJK  time:  CPU      10.00 s  wall      10.16 s
 HF Exchange:              -33.16740507077861
 One-Electron:             -714.10876387919848
 Total Coulomb:            312.91126413342153
 Nuclear repulsion:        203.67275365731808
    1    -233.2523091533      5.19e-02  
Finding J and K together
 Job number = 22, Threshold = 1.00E-08
Integral type ranges set in mkLRange.C for JobNum: 22  <1-21|1-21>
 MakeJK  time:  CPU      10.02 s  wall      10.10 s
 HF Exchange:              -33.21171296128347
 One-Electron:             -713.31578892600544
 Total Coulomb:            312.10337090022028
 Nuclear repulsion:        203.67275365731808
    2    -230.6921511592      3.32e-03  
Finding J and K together
 Job number = 22, Threshold = 1.00E-08
Integral type ranges set in mkLRange.C for JobNum: 22  <1-21|1-21>
 MakeJK  time:  CPU      10.12 s  wall      10.16 s
 HF Exchange:              -33.26698270815448
 One-Electron:             -713.96067225924094
 Total Coulomb:            312.79907268437984
 Nuclear repulsion:        203.67275365731808
    3    -230.7513773298      9.06e-04  
Finding J and K together
 Job number = 22, Threshold = 1.00E-08
Integral type ranges set in mkLRange.C for JobNum: 22  <1-21|1-21>
 MakeJK  time:  CPU      10.19 s  wall      10.32 s
 HF Exchange:              -33.25290279122704
 One-Electron:             -713.67032247750467
 Total Coulomb:            312.49414338848902
 Nuclear repulsion:        203.67275365731808
    4    -230.7558286257      3.48e-04  
Finding J and K together
 Job number = 22, Threshold = 1.00E-08
Integral type ranges set in mkLRange.C for JobNum: 22  <1-21|1-21>
 MakeJK  time:  CPU       9.94 s  wall       9.98 s
 HF Exchange:              -33.25395248905389
 One-Electron:             -713.68227775140156
 Total Coulomb:            312.50713771247695
 Nuclear repulsion:        203.67275365731808
    5    -230.7563282229      3.45e-05  
    6    -230.7563388707      6.39e-06  Convergence criterion met
 ---------------------------------------
 SCF time:   CPU 54.07s  wall 55.00s 
 Total energy in the final basis set =     -230.7563388707
 HF Exchange:              -33.25395248905389
 One-Electron:             -713.68227775140156
 Total Coulomb:            312.50713771247695
 Nuclear repulsion:        203.67275365731808
Wall  1 = 55
Clock 1 = 54.22538757324219
 ==================================================
                  Done GEN_SCFMAN                  
 ==================================================

Symmetry turned off temporarily

 --------------------------------------------------------------
             Orbital Energies (a.u.) and Symmetries
 --------------------------------------------------------------

 Alpha MOs, Restricted
 -- Occupied --                  
-11.238 -11.238 -11.238 -11.237 -11.237 -11.236  -1.153  -1.017
  1 A'    1 A"    2 A'    2 A"    3 A'    4 A'    5 A'    6 A'                 
 -1.017  -0.826  -0.826  -0.712  -0.645  -0.621  -0.590  -0.590
  3 A"    4 A"    7 A'    8 A'    9 A'    5 A"   10 A'    6 A"                 
 -0.502  -0.496  -0.496  -0.337  -0.337
 11 A'   12 A'    7 A"   13 A'    8 A"                                         
 -- Virtual --                   
  0.042   0.049   0.049   0.066   0.066   0.088   0.109   0.109
 14 A'    9 A"   15 A'   10 A"   16 A'   17 A'   11 A"   18 A'                 
  0.129   0.153   0.153   0.158   0.163   0.181   0.181   0.183
 19 A'   20 A'   12 A"   21 A'   13 A"   22 A'   14 A"   15 A"                 
  0.183   0.193   0.209   0.212   0.212   0.216   0.216   0.218
 23 A'   24 A'   25 A'   16 A"   26 A'   27 A'   17 A"   28 A'                 
  0.228   0.228   0.250   0.250   0.289   0.289   0.303   0.333
 29 A'   18 A"   30 A'   19 A"   31 A'   20 A"   21 A"   32 A'                 
  0.335   0.369   0.409   0.409   0.430   0.430   0.441   0.499
 33 A'   34 A'   35 A'   22 A"   23 A"   36 A'   37 A'   24 A"                 
  0.499   0.509   0.509   0.604   0.610   0.715   0.723   0.723
 38 A'   25 A"   39 A'   26 A"   40 A'   41 A'   42 A'   27 A"                 
  0.729   0.751   0.751   0.751   0.758   0.758   0.797   0.820
 43 A'   28 A"   44 A'   29 A"   45 A'   30 A"   46 A'   31 A"                 
  0.820   0.886   0.940   0.940   0.952   0.952   0.976   1.016
 47 A'   48 A'   49 A'   32 A"   33 A"   50 A'   51 A'   52 A'                 
  1.016   1.017   1.059   1.059   1.107   1.122   1.122   1.130
 34 A"   53 A'   54 A'   35 A"   55 A'   56 A'   36 A"   37 A"                 
  1.170   1.219   1.219   1.249   1.324   1.324   1.392   1.392
 57 A'   58 A'   38 A"   39 A"   59 A'   40 A"   60 A'   41 A"                 
  1.524   1.557   1.711   1.787   1.787   1.796   1.827   1.845
 61 A'   62 A'   42 A"   63 A'   43 A"   64 A'   65 A'   44 A"                 
  1.846   1.908   1.908   1.933   1.934   1.992   2.056   2.056
 66 A'   67 A'   45 A"   46 A"   68 A'   69 A'   47 A"   70 A'                 
  2.104   2.104   2.132   2.236   2.237   2.240   2.248   2.249
 71 A'   48 A"   49 A"   50 A"   72 A'   51 A"   73 A'   52 A"                 
  2.298   2.347   2.347   2.380   2.380   2.641   2.663   2.744
 74 A'   53 A"   75 A'   54 A"   76 A'   77 A'   55 A"   56 A"                 
  2.744   2.747   2.817   2.817   2.963   2.963   2.988   2.995
 78 A'   79 A'   57 A"   80 A'   81 A'   58 A"   82 A'   83 A'                 
  3.022   3.022   3.045   3.045   3.058   3.088   3.192   3.192
 84 A'   59 A"   85 A'   60 A"   86 A'   87 A'   61 A"   88 A'                 
  3.268   3.293   3.294   3.331   3.331   3.482   3.549   3.776
 62 A"   63 A"   89 A'   64 A"   90 A'   91 A'   65 A"   92 A'                 
  3.777   3.908   3.908   3.922   4.083   4.410   4.411   4.501
 66 A"   67 A"   93 A'   94 A'   95 A'   68 A"   96 A'   97 A'                 
  4.576   4.576   5.279  24.752  25.139  25.139  25.261  25.261
 69 A"   98 A'   70 A"   99 A'  100 A'   71 A"   72 A"  101 A'                 
 25.372
102 A'                                                                         

 Beta MOs, Restricted
 -- Occupied --                  
-11.238 -11.238 -11.238 -11.237 -11.237 -11.236  -1.153  -1.017
  1 A'    1 A"    2 A'    2 A"    3 A'    4 A'    5 A'    6 A'                 
 -1.017  -0.826  -0.826  -0.712  -0.645  -0.621  -0.590  -0.590
  3 A"    4 A"    7 A'    8 A'    9 A'    5 A"   10 A'    6 A"                 
 -0.502  -0.496  -0.496  -0.337  -0.337
 11 A'   12 A'    7 A"   13 A'    8 A"                                         
 -- Virtual --                   
  0.042   0.049   0.049   0.066   0.066   0.088   0.109   0.109
 14 A'    9 A"   15 A'   10 A"   16 A'   17 A'   11 A"   18 A'                 
  0.129   0.153   0.153   0.158   0.163   0.181   0.181   0.183
 19 A'   20 A'   12 A"   21 A'   13 A"   22 A'   14 A"   15 A"                 
  0.183   0.193   0.209   0.212   0.212   0.216   0.216   0.218
 23 A'   24 A'   25 A'   16 A"   26 A'   27 A'   17 A"   28 A'                 
  0.228   0.228   0.250   0.250   0.289   0.289   0.303   0.333
 29 A'   18 A"   30 A'   19 A"   31 A'   20 A"   21 A"   32 A'                 
  0.335   0.369   0.409   0.409   0.430   0.430   0.441   0.499
 33 A'   34 A'   35 A'   22 A"   23 A"   36 A'   37 A'   24 A"                 
  0.499   0.509   0.509   0.604   0.610   0.715   0.723   0.723
 38 A'   25 A"   39 A'   26 A"   40 A'   41 A'   42 A'   27 A"                 
  0.729   0.751   0.751   0.751   0.758   0.758   0.797   0.820
 43 A'   28 A"   44 A'   29 A"   45 A'   30 A"   46 A'   31 A"                 
  0.820   0.886   0.940   0.940   0.952   0.952   0.976   1.016
 47 A'   48 A'   49 A'   32 A"   33 A"   50 A'   51 A'   52 A'                 
  1.016   1.017   1.059   1.059   1.107   1.122   1.122   1.130
 34 A"   53 A'   54 A'   35 A"   55 A'   56 A'   36 A"   37 A"                 
  1.170   1.219   1.219   1.249   1.324   1.324   1.392   1.392
 57 A'   58 A'   38 A"   39 A"   59 A'   40 A"   60 A'   41 A"                 
  1.524   1.557   1.711   1.787   1.787   1.796   1.827   1.845
 61 A'   62 A'   42 A"   63 A'   43 A"   64 A'   65 A'   44 A"                 
  1.846   1.908   1.908   1.933   1.934   1.992   2.056   2.056
 66 A'   67 A'   45 A"   46 A"   68 A'   69 A'   47 A"   70 A'                 
  2.104   2.104   2.132   2.236   2.237   2.240   2.248   2.249
 71 A'   48 A"   49 A"   50 A"   72 A'   51 A"   73 A'   52 A"                 
  2.298   2.347   2.347   2.380   2.380   2.641   2.663   2.744
 74 A'   53 A"   75 A'   54 A"   76 A'   77 A'   55 A"   56 A"                 
  2.744   2.747   2.817   2.817   2.963   2.963   2.988   2.995
 78 A'   79 A'   57 A"   80 A'   81 A'   58 A"   82 A'   83 A'                 
  3.022   3.022   3.045   3.045   3.058   3.088   3.192   3.192
 84 A'   59 A"   85 A'   60 A"   86 A'   87 A'   61 A"   88 A'                 
  3.268   3.293   3.294   3.331   3.331   3.482   3.549   3.776
 62 A"   63 A"   89 A'   64 A"   90 A'   91 A'   65 A"   92 A'                 
  3.777   3.908   3.908   3.922   4.083   4.410   4.411   4.501
 66 A"   67 A"   93 A'   94 A'   95 A'   68 A"   96 A'   97 A'                 
  4.576   4.576   5.279  24.752  25.139  25.139  25.261  25.261
 69 A"   98 A'   70 A"   99 A'  100 A'   71 A"   72 A"  101 A'                 
 25.372
102 A'                                                                         
 --------------------------------------------------------------

          Ground-State Mulliken Net Atomic Charges

     Atom                 Charge (a.u.)
  ----------------------------------------
      1 C                    -0.192261
      2 C                    -0.192467
      3 C                    -0.192261
      4 C                    -0.192833
      5 C                    -0.192711
      6 C                    -0.192833
      7 H                     0.192556
      8 H                     0.192461
      9 H                     0.192556
     10 H                     0.192599
     11 H                     0.192596
     12 H                     0.192599
  ----------------------------------------
  Sum of atomic charges =    -0.000000

 -----------------------------------------------------------------
                    Cartesian Multipole Moments
 -----------------------------------------------------------------
    Charge (ESU x 10^10)
                -0.0000
    Dipole Moment (Debye)
         X      -0.0007      Y       0.0076      Z       0.0000
       Tot       0.0076
    Quadrupole Moments (Debye-Ang)
        XX     -31.9134     XY      -0.0199     YY     -41.3059
        XZ       0.0000     YZ      -0.0000     ZZ     -31.9229
    Octopole Moments (Debye-Ang^2)
       XXX      -0.0056    XXY       0.0474    XYY      -0.0008
       YYY       0.0142    XXZ      -0.0000    XYZ       0.0000
       YYZ       0.0000    XZZ      -0.0017    YZZ       0.0236
       ZZZ       0.0000
    Hexadecapole Moments (Debye-Ang^3)
      XXXX    -270.4296   XXXY      -0.1346   XXYY     -66.0700
      XYYY      -0.0307   YYYY     -52.1567   XXXZ       0.0000
      XXYZ      -0.0000   XYYZ       0.0000   YYYZ      -0.0000
      XXZZ     -90.1314   XYZZ      -0.0388   YYZZ     -66.0556
      XZZZ       0.0000   YZZZ      -0.0000   ZZZZ    -270.4050
 -----------------------------------------------------------------
 Mayer SCF Bond Order, atomic valence on the diagonal:

            1           2           3           4           5           6
    1   4.4320860   1.8296802  -0.0970178   0.0482181  -0.0970220   1.8301383
    2   1.8296802   4.4320801   1.8296802  -0.0968304   0.0485222  -0.0968304
    3  -0.0970178   1.8296802   4.4320860   1.8301383  -0.0970220   0.0482181
    4   0.0482181  -0.0968304   1.8301383   4.4331050   1.8303278  -0.0968298
    5  -0.0970220   0.0485222  -0.0970220   1.8303278   4.4332189   1.8303278
    6   1.8301383  -0.0968304   0.0482181  -0.0968298   1.8303278   4.4331050
    7   0.7788445   0.0908862  -0.0265447   0.0101841  -0.0265497   0.0911994
    8   0.0909027   0.7791135   0.0909027  -0.0264643   0.0101492  -0.0264643
    9  -0.0265447   0.0908862   0.7788445   0.0911994  -0.0265497   0.0101841
   10   0.0102043  -0.0265973   0.0912022   0.7785999   0.0911869  -0.0265747
   11  -0.0265198   0.0101668  -0.0265198   0.0911366   0.7786615   0.0911366
   12   0.0912022  -0.0265973   0.0102043  -0.0265747   0.0911869   0.7785999
            7           8           9          10          11          12
    1   0.7788445   0.0909027  -0.0265447   0.0102043  -0.0265198   0.0912022
    2   0.0908862   0.7791135   0.0908862  -0.0265973   0.0101668  -0.0265973
    3  -0.0265447   0.0909027   0.7788445   0.0912022  -0.0265198   0.0102043
    4   0.0101841  -0.0264643   0.0911994   0.7785999   0.0911366  -0.0265747
    5  -0.0265497   0.0101492  -0.0265497   0.0911869   0.7786615   0.0911869
    6   0.0911994  -0.0264643   0.0101841  -0.0265747   0.0911366   0.7785999
    7   0.9408397   0.0107911   0.0006078  -0.0000003   0.0006068   0.0108145
    8   0.0107911   0.9409340   0.0107911   0.0006063  -0.0000001   0.0006063
    9   0.0006078   0.0107911   0.9408397   0.0108145   0.0006068  -0.0000003
   10  -0.0000003   0.0006063   0.0108145   0.9408575   0.0108075   0.0006083
   11   0.0006068  -0.0000001   0.0006068   0.0108075   0.9408906   0.0108075
   12   0.0108145   0.0006063  -0.0000003   0.0006083   0.0108075   0.9408575


 JobOver = TRUE
Archival summary:
1\1\qciep03\SP\HF\BasisUnspecified\66\jcartus\ThuJan2517:42:222018ThuJan2517:42:222018\0\\#,HF,BasisUnspecified,\\0,1\C\H,1,1.08144\C,1,1.39389,2,120.001\H,3,1.08141,1,120.006,2,-0.03803,0\C,3,1.39389,1,119.988,2,-179.971,0\H,5,1.08144,3,120.001,1,179.971,0\C,1,1.39411,2,119.992,3,-179.997,0\H,7,1.08132,1,120.029,2,-0.176131,0\C,7,1.39396,1,120.007,2,179.981,0\H,9,1.08114,7,120.008,1,179.618,0\C,9,1.39396,7,119.984,1,0.00623121,0\H,11,1.08132,9,119.964,7,179.837,0\\HF=-230.756339\\@

 Total job time:  56.23s(wall), 55.16s(cpu) 
 Thu Jan 25 17:42:22 2018

        *************************************************************
        *                                                           *
        *  Thank you very much for using Q-Chem.  Have a nice day.  *
        *                                                           *
        *************************************************************


*** MISSION COMPLETED -- STARFLEET OUT ***

0 sent ACK to 0 
now end server 0 ... 
