Process 0 of 1 is on qciep03 - thread support 0
initial socket setup ...start
initial socket setup ...done 
now start server 0 ... 
qciep03.tugraz.at 127.0.1
Q-Chem Developer Version! Running on 127.0.1.*
                  Welcome to Q-Chem
     A Quantum Leap Into The Future Of Chemistry


 Q-Chem 5.0, Q-Chem, Inc., Pleasanton, CA (2017)

 Yihan Shao,  Zhengting Gan,  E. Epifanovsky,  A. T. B. Gilbert,  M. Wormit,  
 J. Kussmann,  A. W. Lange,  A. Behn,  Jia Deng,  Xintian Feng,  D. Ghosh,  
 M. Goldey,  P. R. Horn,  L. D. Jacobson,  I. Kaliman,  T. Kus,  A. Landau,  
 Jie Liu,  E. I. Proynov,  R. M. Richard,  R. P. Steele,  E. J. Sundstrom,  
 H. L. Woodcock III,  P. M. Zimmerman,  D. Zuev,  B. Albrecht,  E. Alguire,  
 S. A. Baeppler,  D. Barton,  Z. Benda,  Y. A. Bernard,  E. J. Berquist,  
 K. B. Bravaya,  H. Burton,  D. Casanova,  Chun-Min Chang,  Yunqing Chen,  
 A. Chien,  K. D. Closser,  M. P. Coons,  S. Dasgupta,  A. L. Dempwolff,  
 M. Diedenhofen,  Hainam Do,  R. G. Edgar,  Po-Tung Fang,  S. Fatehi,  
 Qingguo Feng,  J. Fosso-Tande,  Qinghui Ge,  A. Ghysels,  G. Gidofalvi,  
 J. Gomes,  J. Gonthier,  A. Gunina,  M. W. D. Hanson-Heine,  
 P. H. P. Harbach,  A. W. Hauser,  J. E. Herr,  E. G. Hohenstein,  
 Z. C. Holden,  Kerwin Hui,  T.-C. Jagau,  Hyunjun Ji,  B. Kaduk,  
 K. Khistyaev,  Jaehoon Kim,  P. Klunzinger,  K. Koh,  D. Kosenkov,  
 L. Koulias,  T. Kowalczyk,  C. M. Krauter,  A. Kunitsa,  Ka Un Lao,  
 A. Laurent,  K. V. Lawler,  Joonho Lee,  D. Lefrancois,  S. Lehtola,  
 D. S. Levine,  Yi-Pei Li,  You-Sheng Lin,  Fenglai Liu,  E. Livshits,  
 A. Luenser,  P. Manohar,  E. Mansoor,  S. F. Manzer,  Shan-Ping Mao,  
 Yuezhi Mao,  N. Mardirossian,  A. V. Marenich,  T. Markovich,  
 L. A. Martinez-Martinez,  S. A. Maurer,  N. J. Mayhall,  S. C. McKenzie,  
 J.-M. Mewes,  A. F. Morrison,  J. W. Mullinax,  K. Nanda,  
 T. S. Nguyen-Beck,  R. Olivares-Amaya,  J. A. Parkhill,  T. M. Perrine,  
 F. Plasser,  S. Prager,  A. Prociuk,  E. Ramos,  D. R. Rehn,  F. Rob,  
 M. Schneider,  N. Sergueev,  S. M. Sharada,  S. Sharma,  D. W. Small,  
 T. Stauch,  T. Stein,  Yu-Chuan Su,  A. J. W. Thom,  A. Tkatchenko,  
 T. Tsuchimochi,  L. Vogt,  O. Vydrov,  M. A. Watson,  J. Wenzel,  
 M. de Wergifosse,  T. A. Wesolowski,  A. White,  J. Witte,  A. Yamada,  
 Jun Yang,  K. Yao,  S. Yeganeh,  S. R. Yost,  Zhi-Qiang You,  A. Zech,  
 Igor Ying Zhang,  Xing Zhang,  Yan Zhao,  Ying Zhu,  B. R. Brooks,  
 G. K. L. Chan,  C. J. Cramer,  M. S. Gordon,  W. J. Hehre,  A. Klamt,  
 M. W. Schmidt,  C. D. Sherrill,  D. G. Truhlar,  A. Aspuru-Guzik,  R. Baer,  
 A. T. Bell,  N. A. Besley,  Jeng-Da Chai,  R. A. DiStasio Jr.,  A. Dreuw,  
 B. D. Dunietz,  T. R. Furlani,  Chao-Ping Hsu,  Yousung Jung,  Jing Kong,  
 D. S. Lambrecht,  WanZhen Liang,  C. Ochsenfeld,  V. A. Rassolov,  
 L. V. Slipchenko,  J. E. Subotnik,  T. Van Voorhis,  J. M. Herbert,  
 A. I. Krylov,  P. M. W. Gill,  M. Head-Gordon

 Contributors to earlier versions of Q-Chem not listed above: 
 R. D. Adamson,  B. Austin,  J. Baker,  G. J. O. Beran,  K. Brandhorst,  
 S. T. Brown,  E. F. C. Byrd,  A. K. Chakraborty,  C.-L. Cheng,  
 Siu Hung Chien,  D. M. Chipman,  D. L. Crittenden,  H. Dachsel,  
 R. J. Doerksen,  A. D. Dutoi,  L. Fusti-Molnar,  W. A. Goddard III,  
 A. Golubeva-Zadorozhnaya,  S. R. Gwaltney,  G. Hawkins,  A. Heyden,  
 S. Hirata,  G. Kedziora,  F. J. Keil,  C. Kelley,  Jihan Kim,  R. A. King,  
 R. Z. Khaliullin,  P. P. Korambath,  W. Kurlancheek,  A. M. Lee,  M. S. Lee,  
 S. V. Levchenko,  Ching Yeh Lin,  D. Liotard,  R. C. Lochan,  I. Lotan,  
 P. E. Maslen,  N. Nair,  D. P. O'Neill,  D. Neuhauser,  E. Neuscamman,  
 C. M. Oana,  R. Olson,  B. Peters,  R. Peverati,  P. A. Pieniazek,  
 Y. M. Rhee,  J. Ritchie,  M. A. Rohrdanz,  E. Rosta,  N. J. Russ,  
 H. F. Schaefer III,  N. E. Schultz,  N. Shenvi,  A. C. Simmonett,  A. Sodt,  
 D. Stuck,  K. S. Thanthiriwatte,  V. Vanovschi,  Tao Wang,  A. Warshel,  
 C. F. Williams,  Q. Wu,  X. Xu,  W. Zhang

 Please cite Q-Chem as follows:
 Y. Shao et al., Mol. Phys. 113, 184-215 (2015)
 DOI: 10.1080/00268976.2014.952696

 Q-Chem 5.0.2 for Intel X86 EM64T Linux

 Parts of Q-Chem use Armadillo 5.200.1 (Boston Tea Smuggler).
 http://arma.sourceforge.net/

 Q-Chem begins on Thu Jan 25 17:27:28 2018  


Host: 0

     Scratch files written to /home/jcartus/scratch/Adenine-thymine-Watson-Crick-complex.dir//
 Using version located at /usr/local/qchem/bin/qchem

 Parallel job on  1  processors

Total Memory Limit in MB = 2000
Mega-Array Size in MB = 192

Checking the input file for inconsistencies... 	...done.
Finally everything over in PARseQInput

--------------------------------------------------------------
User input:
--------------------------------------------------------------
$rem
SCF_PRINT                     1
BASIS                         6-311++g**
SCF_SAVE_MATRICES             1
SCF_CONVERGENCE               5
SCF_FINAL_PRINT               1
METHOD                        hf
JOBTYPE                       sp
$end

$molecule
0 1
N    0.9350155    -0.0279801    -0.3788916
C    1.6739638    -0.0357766    0.7424316
C    3.0747955    -0.009448    0.5994562
C    3.5646109    0.0195446    -0.7059872
N    2.853151    0.0258031    -1.8409596
C    1.549076    0.0012569    -1.5808009
N    4.0885824    -0.0054429    1.5289786
C    5.1829921    0.0253971    0.7872176
N    4.9294871    0.0412404    -0.5567274
N    1.0716177    -0.0765366    1.939139
H    0.8794435    0.005026    -2.4315709
H    6.1882591    0.0375542    1.1738824
H    5.6035368    0.0648755    -1.3036811
H    0.0586915    -0.0423765    2.0039181
H    1.6443796    -0.0347395    2.7619159
N    -3.9211729    -0.0009646    -1.5163659
C    -4.6136833    0.0169051    -0.333652
C    -3.9917387    0.0219348    0.8663338
C    -2.5361367    0.0074651    0.8766724
N    -1.9256484    -0.0110593    -0.3638948
C    -2.5395897    -0.0149474    -1.5962357
C    -4.7106131    0.0413373    2.1738637
O    -1.867473    0.0112093    1.9120833
O    -1.9416783    -0.0291878    -2.6573783
H    -4.4017172    -0.0036078    -2.4004924
H    -0.8838255    -0.0216168    -0.3784269
H    -5.690922    0.0269347    -0.4227183
H    -4.4439282    -0.8302573    2.7695655
H    -4.4267056    0.9186178    2.7530256
H    -5.7883971    0.050553    2.024728
$end


--------------------------------------------------------------
 ----------------------------------------------------------------
             Standard Nuclear Orientation (Angstroms)
    I     Atom           X                Y                Z
 ----------------------------------------------------------------
    1      N       0.9794493034    -0.3946671434     0.0284601180
    2      C       1.7091172430     0.7327161154     0.0363835049
    3      C       3.1110793085     0.6013128742     0.0099228395
    4      C       3.6116513256    -0.7000381756    -0.0193221328
    5      N       2.9095836361    -1.8408435215    -0.0257118922
    6      C       1.6034075609    -1.5914620172    -0.0010218806
    7      N       4.1171587451     1.5391724191     0.0059918215
    8      C       5.2176514832     0.8064754037    -0.0250548361
    9      N       4.9752472687    -0.5395137244    -0.0410992147
   10      N       1.0969168334     1.9244040763     0.0773867409
   11      H       0.9408201354    -2.4477297976    -0.0048788050
   12      H       6.2196916060     1.2014268571    -0.0372263522
   13      H       5.6554377596    -1.2808742472    -0.0649092416
   14      H       0.0834877410     1.9808254925     0.0433157964
   15      H       1.6628644307     2.7518875597     0.0356803772
   16      N      -3.8671866570    -1.5721830180     0.0016342211
   17      C      -4.5694374112    -0.3952227379    -0.0159875512
   18      C      -3.9574195058     0.8098567469    -0.0208683752
   19      C      -2.5019512967     0.8322077003    -0.0065098065
   20      N      -1.8812422547    -0.4032810557     0.0117635219
   21      C      -2.4849901524    -1.6406482888     0.0154968115
   22      C      -4.6870637580     2.1114114057    -0.0400004042
   23      O      -1.8418573221     1.8731033202    -0.0101357816
   24      O      -1.8783389539    -2.6968216733     0.0295165835
   25      H      -4.3404164829    -2.4602464072     0.0041694613
   26      H      -0.8393340648    -0.4092147991     0.0222378794
   27      H      -5.6459050150    -0.4931762850    -0.0259482785
   28      H      -4.4252363380     2.7091516307     0.8316713475
   29      H      -4.4080157266     2.6930405617    -0.9172077752
   30      H      -5.7635807449     1.9533858715    -0.0491570551
 ----------------------------------------------------------------
 Molecular Point Group                 C1    NOp =  1
 Largest Abelian Subgroup              C1    NOp =  1
 Nuclear Repulsion Energy =  1365.2322810284 hartrees
 There are       68 alpha and       68 beta electrons
 Requested basis set is 6-311++G(d,p)
 There are 169 shells and 495 basis functions

 Total QAlloc Memory Limit   2000 MB
 Mega-Array Size       188 MB
 MEM_STATIC part       192 MB

finished with qalloc call
 Job number = 2, Threshold = 1.00E-08
Integral type ranges set in mkLRange.C for JobNum: 2  <1-21|1-21>
Symmetry turned off temporarily
 Using the largest function pair in Schwarz integrals
Total number of integrals generated =         1367246
Symmetry turned back on
 A cutoff of  1.0D-08 yielded   9144 shell pairs
 There are     80446 function pairs (     85892 Cartesian)
 Job number = 11, Threshold = 1.00E-08
Integral type ranges set in mkLRange.C for JobNum: 11  <1-21|22-22>
Total number of integrals generated =         2576490
 Smallest overlap matrix eigenvalue = 2.43E-07

 Q-Chem warning in module /usr/local/qchem/stvman/mkSTV.C, line 295:

 Overlap eigenvalue is smaller than square root of threshold

 Linear dependence detected in AO basis
 Number of orthogonalized atomic orbitals = 494
 Maximum deviation from orthogonality = 2.656E-10
 Multipole matrices computed through 2nd order

 Scale SEOQF with 1.000000e-02/1.000000e-01/1.000000e-01

 Standard Electronic Orientation quadrupole field applied
 Nucleus-field energy     =     0.0000000266 hartrees
 ENuRep (before)= 1365.2322810284
 ENucField = 0.0000000266
 ENuRep (after) = 1365.2322810550
 Guess from superposition of atomic densities
 Warning:  Energy on first SCF cycle will be non-variational
 SAD guess density has 136.000000 electrons

 ==================================================
    GEN_SCFMAN: A general SCF calculation manager  
                                                   
    Authors:                                       
        -- Eric Jon Sundstrom 2008-2014            
        -- Paul Horn 2010-2015                     
        -- Yuezhi Mao 2012-                        
        -- Dmitri Zuev 2014                        
        -- Alec White 2015-                        
        -- David Stuck 2015                        
        -- Shaama M.S. 2015                        
        -- Shane Yost 2015-                         
        -- Joonho Lee 2016-                        
        -- David Small 2016-                       
        -- Daniel Levine 2016-                     
        -- Susi Lehtola 2017-                      
        -- Hugh Burton 2017-                       
 ==================================================
 Hartree-Fock
Finding J and K together
 Job number = 22, Threshold = 1.00E-08
Integral type ranges set in mkLRange.C for JobNum: 22  <1-21|1-21>
 MakeJK  time:  CPU      45.86 s  wall      47.30 s
 HF Exchange:              -121.12919273111953
 One-Electron:             -3953.91810062519971
 Total Coulomb:            1785.63577949082469
 Nuclear repulsion:        1365.23228105499561
 A restricted SCF calculation will be
 performed using DIIS
 SCF converges when DIIS error is below 1.0e-05
 ---------------------------------------
  Cycle       Energy         DIIS error
 ---------------------------------------
Finding J and K together
 Job number = 22, Threshold = 1.00E-08
Integral type ranges set in mkLRange.C for JobNum: 22  <1-21|1-21>
 MakeJK  time:  CPU     279.25 s  wall     280.99 s
 HF Exchange:              -118.70617951116294
 One-Electron:             -3960.00590692790274
 Total Coulomb:            1797.58553409789943
 Nuclear repulsion:        1365.23228105499561
    1    -924.1792328105      3.35e-02  
Finding J and K together
 Job number = 22, Threshold = 1.00E-08
Integral type ranges set in mkLRange.C for JobNum: 22  <1-21|1-21>
 MakeJK  time:  CPU     271.69 s  wall     272.75 s
 HF Exchange:              -118.46704456410421
 One-Electron:             -3962.17915866235853
 Total Coulomb:            1799.28822986850992
 Nuclear repulsion:        1365.23228105499561
    2    -915.8942712862      3.43e-03  
Finding J and K together
 Job number = 22, Threshold = 1.00E-08
Integral type ranges set in mkLRange.C for JobNum: 22  <1-21|1-21>
 MakeJK  time:  CPU     280.97 s  wall     283.24 s
 HF Exchange:              -118.77683451098373
 One-Electron:             -3961.78527154306585
 Total Coulomb:            1799.06322987820477
 Nuclear repulsion:        1365.23228105499561
    3    -916.1256923030      2.51e-03  
Finding J and K together
 Job number = 22, Threshold = 1.00E-08
Integral type ranges set in mkLRange.C for JobNum: 22  <1-21|1-21>
 MakeJK  time:  CPU     296.96 s  wall     300.68 s
 HF Exchange:              -118.78065289145636
 One-Electron:             -3961.68402158889285
 Total Coulomb:            1798.95770733281597
 Nuclear repulsion:        1365.23228105499561
    4    -916.2665951208      4.61e-04  
Finding J and K together
 Job number = 22, Threshold = 1.00E-08
Integral type ranges set in mkLRange.C for JobNum: 22  <1-21|1-21>
 MakeJK  time:  CPU     305.03 s  wall     307.87 s
 HF Exchange:              -118.78418922681426
 One-Electron:             -3961.69210810529057
 Total Coulomb:            1798.96849681851768
 Nuclear repulsion:        1365.23228105499561
    5    -916.2746860925      1.46e-04  
Finding J and K together
 Job number = 22, Threshold = 1.00E-08
Integral type ranges set in mkLRange.C for JobNum: 22  <1-21|1-21>
 MakeJK  time:  CPU     263.05 s  wall     264.14 s
 HF Exchange:              -118.78928746246547
 One-Electron:             -3961.70713438321673
 Total Coulomb:            1798.98845460408438
 Nuclear repulsion:        1365.23228105499561
    6    -916.2755194586      4.47e-05  
Finding J and K together
 Job number = 22, Threshold = 1.00E-08
Integral type ranges set in mkLRange.C for JobNum: 22  <1-21|1-21>
 MakeJK  time:  CPU     179.59 s  wall     179.77 s
 HF Exchange:              -118.79025819769970
 One-Electron:             -3961.69990688181770
 Total Coulomb:            1798.98215546249253
 Nuclear repulsion:        1365.23228105499561
    7    -916.2756861866      2.11e-05  
    8    -916.2757285620      9.87e-06  Convergence criterion met
 ---------------------------------------
 SCF time:   CPU 1939.68s  wall 1955.00s 
 Total energy in the final basis set =     -916.2757285620
 HF Exchange:              -118.79025819769970
 One-Electron:             -3961.69990688181770
 Total Coulomb:            1798.98215546249253
 Nuclear repulsion:        1365.23228105499561
Wall  1 = 1956
Clock 1 = 1940.68371582031250
 ==================================================
                  Done GEN_SCFMAN                  
 ==================================================

Symmetry turned off temporarily

 --------------------------------------------------------------

                    Orbital Energies (a.u.)
 --------------------------------------------------------------

 Alpha MOs
 -- Occupied --
-20.538 -20.535 -15.634 -15.632 -15.605 -15.569 -15.569 -15.557
-15.554 -11.410 -11.378 -11.339 -11.327 -11.324 -11.318 -11.312
-11.256 -11.251 -11.235  -1.427  -1.394  -1.371  -1.304  -1.303
 -1.247  -1.234  -1.187  -1.155  -1.106  -1.034  -0.968  -0.913
 -0.896  -0.890  -0.878  -0.848  -0.779  -0.768  -0.767  -0.738
 -0.706  -0.700  -0.675  -0.673  -0.659  -0.638  -0.638  -0.635
 -0.614  -0.609  -0.592  -0.589  -0.565  -0.559  -0.554  -0.550
 -0.506  -0.496  -0.494  -0.477  -0.456  -0.444  -0.424  -0.419
 -0.411  -0.376  -0.349  -0.303
 -- Virtual --
  0.028   0.035   0.047   0.059   0.060   0.068   0.074   0.076
  0.084   0.090   0.095   0.100   0.100   0.107   0.113   0.114
  0.127   0.133   0.135   0.140   0.141   0.149   0.149   0.151
  0.160   0.160   0.163   0.164   0.173   0.176   0.179   0.183
  0.187   0.190   0.193   0.195   0.207   0.210   0.215   0.216
  0.219   0.220   0.225   0.231   0.233   0.243   0.248   0.253
  0.262   0.264   0.269   0.272   0.278   0.280   0.286   0.290
  0.295   0.296   0.298   0.307   0.308   0.311   0.320   0.324
  0.325   0.328   0.334   0.335   0.344   0.347   0.353   0.354
  0.361   0.364   0.372   0.375   0.380   0.390   0.393   0.395
  0.399   0.404   0.405   0.407   0.411   0.414   0.423   0.429
  0.435   0.438   0.439   0.449   0.450   0.457   0.466   0.468
  0.472   0.480   0.488   0.491   0.495   0.507   0.517   0.529
  0.533   0.540   0.553   0.556   0.564   0.569   0.579   0.589
  0.595   0.615   0.631   0.636   0.643   0.654   0.662   0.686
  0.702   0.718   0.725   0.733   0.742   0.746   0.754   0.776
  0.777   0.782   0.786   0.790   0.793   0.801   0.805   0.809
  0.822   0.850   0.854   0.856   0.859   0.865   0.879   0.895
  0.910   0.912   0.926   0.941   0.960   0.964   0.965   0.974
  0.978   0.982   1.020   1.025   1.032   1.037   1.039   1.048
  1.056   1.068   1.069   1.074   1.086   1.090   1.095   1.095
  1.108   1.118   1.126   1.130   1.142   1.143   1.150   1.158
  1.166   1.174   1.174   1.185   1.189   1.198   1.210   1.224
  1.240   1.251   1.256   1.259   1.281   1.284   1.306   1.312
  1.319   1.335   1.354   1.359   1.374   1.379   1.385   1.407
  1.418   1.423   1.436   1.447   1.451   1.455   1.474   1.482
  1.492   1.500   1.505   1.521   1.525   1.549   1.554   1.577
  1.584   1.604   1.629   1.630   1.647   1.689   1.707   1.722
  1.728   1.752   1.786   1.794   1.799   1.819   1.832   1.838
  1.841   1.849   1.863   1.890   1.892   1.921   1.926   1.944
  1.953   1.959   1.959   1.974   1.996   2.002   2.007   2.026
  2.029   2.054   2.068   2.073   2.085   2.091   2.106   2.114
  2.142   2.144   2.160   2.173   2.181   2.201   2.223   2.226
  2.239   2.249   2.280   2.294   2.307   2.323   2.342   2.365
  2.413   2.424   2.465   2.478   2.484   2.486   2.496   2.536
  2.557   2.578   2.586   2.594   2.604   2.608   2.615   2.648
  2.653   2.671   2.725   2.735   2.756   2.759   2.788   2.803
  2.810   2.836   2.868   2.871   2.886   2.897   2.902   2.905
  2.929   2.951   2.959   2.968   2.991   3.005   3.010   3.036
  3.047   3.061   3.070   3.082   3.108   3.112   3.131   3.149
  3.151   3.177   3.184   3.203   3.212   3.218   3.223   3.229
  3.252   3.257   3.270   3.275   3.277   3.279   3.285   3.304
  3.321   3.324   3.328   3.358   3.373   3.379   3.388   3.394
  3.406   3.424   3.473   3.543   3.565   3.604   3.702   3.735
  3.735   3.748   3.766   3.831   3.848   3.871   3.906   3.912
  3.935   3.974   3.987   4.014   4.051   4.054   4.084   4.089
  4.125   4.142   4.173   4.202   4.268   4.273   4.307   4.321
  4.331   4.356   4.372   4.377   4.426   4.433   4.442   4.502
  4.594   4.672   4.752   4.912   5.000   5.109   5.196   5.229
  5.346   5.365   5.368   5.447   5.536   5.619   5.632   5.645
  5.739   5.770   5.867   5.884   5.947   6.388   6.445  24.866
 24.922  25.000  25.042  25.068  25.108  25.137  25.144  25.250
 25.317  37.014  37.045  37.061  37.088  37.111  37.169  37.208
 51.738  51.777
 --------------------------------------------------------------

          Ground-State Mulliken Net Atomic Charges

     Atom                 Charge (a.u.)
  ----------------------------------------
      1 N                    -0.445157
      2 C                     0.494566
      3 C                    -0.325665
      4 C                    -0.182684
      5 N                    -0.285954
      6 C                    -0.035083
      7 N                    -0.290389
      8 C                     0.437380
      9 N                    -0.383446
     10 N                    -0.716413
     11 H                     0.280462
     12 H                     0.252104
     13 H                     0.364018
     14 H                     0.489509
     15 H                     0.328204
     16 N                    -0.593544
     17 C                    -0.191243
     18 C                     0.532573
     19 C                     0.180521
     20 N                    -0.767347
     21 C                     0.493845
     22 C                    -0.693328
     23 O                    -0.432314
     24 O                    -0.412810
     25 H                     0.414348
     26 H                     0.766966
     27 H                     0.232788
     28 H                     0.178407
     29 H                     0.178444
     30 H                     0.131239
  ----------------------------------------
  Sum of atomic charges =    -0.000002

 -----------------------------------------------------------------
                    Cartesian Multipole Moments
 -----------------------------------------------------------------
    Charge (ESU x 10^10)
                -0.0000
    Dipole Moment (Debye)
         X      -2.1229      Y       0.0740      Z      -0.2103
       Tot       2.1346
    Quadrupole Moments (Debye-Ang)
        XX     -48.8530     XY       2.4029     YY    -123.4092
        XZ      -0.4053     YZ      -0.0847     ZZ    -113.6471
    Octopole Moments (Debye-Ang^2)
       XXX      21.8044    XXY     -64.6942    XYY     -22.1058
       YYY      27.7127    XXZ      -3.9992    XYZ      -0.5302
       YYZ      -0.7488    XZZ      -7.5228    YZZ      -1.9862
       ZZZ      -0.0779
    Hexadecapole Moments (Debye-Ang^3)
      XXXX   -4796.4790   XXXY      50.9859   XXYY   -1445.5742
      XYYY      40.3204   YYYY   -1592.1007   XXXZ     -17.1316
      XXYZ       0.3601   XYYZ      -0.4408   YYYZ       0.2282
      XXZZ   -1322.3033   XYZZ      -3.0291   YYZZ    -278.3829
      XZZZ      -0.6194   YZZZ      -0.8785   ZZZZ    -123.3344
 -----------------------------------------------------------------
 Mayer SCF Bond Order, atomic valence on the diagonal:

            1           2           3           4           5           6
    1   2.8334909   1.3929065  -0.2595388   0.0683128   0.0671282   1.2957351
    2   1.3929065   3.3133783   1.3268920  -0.0335515  -0.0243660   0.0321035
    3  -0.2595388   1.3268920   3.8985033   1.1789726   0.0159278   0.1037497
    4   0.0683128  -0.0335515   1.1789726   3.9623503   1.3116611   0.1503341
    5   0.0671282  -0.0243660   0.0159278   1.3116611   2.8104155   1.4525846
    6   1.2957351   0.0321035   0.1037497   0.1503341   1.4525846   3.9718068
    7   0.0287567  -0.4300553   1.4731247   0.3181312   0.0258737   0.0258156
    8  -0.0278838   0.0512682  -0.0168905  -0.1209058   0.0371731   0.0150937
    9   0.0126812  -0.0198249   0.0270236   1.1041322   0.0089433   0.0312460
   10   0.0257456   1.1996342  -0.0842903  -0.0275299   0.0128771  -0.0049083
   11  -0.0404350   0.0250649   0.0084319   0.0644701  -0.0913308   0.8793473
   12  -0.0019406   0.0026509   0.0449947   0.0441515   0.0020167   0.0004663
   13   0.0011612   0.0002933   0.0439107  -0.0504265  -0.0096131   0.0040558
   14   0.0066838  -0.0375292   0.0134279   0.0009687   0.0000034  -0.0017866
   15   0.0157395   0.0531968  -0.0297520  -0.0254798   0.0002672   0.0060181
   16   0.0060908   0.0078773  -0.0005999  -0.0056249  -0.0015412   0.0094609
   17  -0.0624617  -0.0264242   0.0187944   0.0128465   0.0014411  -0.0621861
   18  -0.0072283   0.0093688  -0.0310988   0.0456977  -0.0028345  -0.0151199
   19  -0.1341658   0.0023277   0.0347976  -0.0657821   0.0093969   0.0741797
   20   0.4912129  -0.1187532   0.0186819   0.0116505  -0.0006737  -0.0026850
   21  -0.0570496   0.0067804   0.0080590  -0.0034465  -0.0001378  -0.0059835
   22   0.0002557   0.0347667  -0.0254104  -0.0031566  -0.0003132   0.0078188
   23   0.0195116  -0.1294191   0.0516511  -0.0000328   0.0001223   0.0277637
   24   0.0050160   0.0435013  -0.0067604   0.0118187   0.0014734  -0.0337119
   25   0.0009573  -0.0032554   0.0035117  -0.0019864   0.0001479   0.0011838
   26  -0.0124682  -0.0535486  -0.0185233  -0.0227413  -0.0058848  -0.0178272
   27  -0.0010957  -0.0003742   0.0005605   0.0001076   0.0000464  -0.0011096
   28  -0.0001401   0.0009717  -0.0004503  -0.0001872   0.0000052   0.0001967
   29  -0.0001570   0.0009923  -0.0005061  -0.0002015   0.0000061   0.0001625
   30   0.0001609  -0.0001166  -0.0001881   0.0001480   0.0000148  -0.0001911
            7           8           9          10          11          12
    1   0.0287567  -0.0278838   0.0126812   0.0257456  -0.0404350  -0.0019406
    2  -0.4300553   0.0512682  -0.0198249   1.1996342   0.0250649   0.0026509
    3   1.4731247  -0.0168905   0.0270236  -0.0842903   0.0084319   0.0449947
    4   0.3181312  -0.1209058   1.1041322  -0.0275299   0.0644701   0.0441515
    5   0.0258737   0.0371731   0.0089433   0.0128771  -0.0913308   0.0020167
    6   0.0258156   0.0150937   0.0312460  -0.0049083   0.8793473   0.0004663
    7   2.8813630   1.3537081   0.0880596   0.0461557   0.0000786  -0.0576752
    8   1.3537081   3.0597562   0.8877893   0.0136478  -0.0010878   0.8881547
    9   0.0880596   0.8877893   2.9606286  -0.0025272   0.0026120  -0.0635085
   10   0.0461557   0.0136478  -0.0025272   2.8528414  -0.0014599   0.0003997
   11   0.0000786  -0.0010878   0.0026120  -0.0014599   0.8687812   0.0002194
   12  -0.0576752   0.8881547  -0.0635085   0.0003997   0.0002194   0.8596988
   13   0.0096818  -0.0280638   0.8834127  -0.0009238  -0.0002332  -0.0007082
   14   0.0114728   0.0003540   0.0011342   0.7219798  -0.0000009   0.0005782
   15  -0.0067983   0.0027918  -0.0007155   0.8829211   0.0003396  -0.0001917
   16   0.0000324   0.0001268   0.0001636  -0.0008230   0.0031324   0.0000070
   17   0.0009643   0.0007772  -0.0014370   0.0165492  -0.0169284   0.0011167
   18   0.0014650   0.0088799   0.0017184  -0.0007180  -0.0001529   0.0003295
   19  -0.0012599  -0.0130869  -0.0009125  -0.0183892   0.0139548  -0.0007501
   20  -0.0019079   0.0015442   0.0004721   0.0283548   0.0139514  -0.0002628
   21   0.0012660   0.0023614   0.0000566  -0.0048525  -0.0070726   0.0000853
   22   0.0010214  -0.0002519   0.0000701  -0.0069133   0.0031352   0.0000245
   23   0.0003124   0.0027452   0.0001931   0.0414249   0.0034312   0.0000417
   24  -0.0000105   0.0003003  -0.0001932  -0.0007177   0.0097709  -0.0000050
   25  -0.0000190  -0.0000163  -0.0000128  -0.0004113   0.0002697   0.0000069
   26  -0.0068662   0.0013692   0.0000743   0.0173559  -0.0005442  -0.0004910
   27  -0.0000224   0.0000125   0.0000198   0.0005274  -0.0002337  -0.0000118
   28  -0.0000016  -0.0001373  -0.0000012  -0.0000735   0.0000247  -0.0000170
   29   0.0000104  -0.0001540  -0.0000017  -0.0001106   0.0000119  -0.0000153
   30   0.0000488   0.0001370  -0.0000392  -0.0000834   0.0000149   0.0000322
           13          14          15          16          17          18
    1   0.0011612   0.0066838   0.0157395   0.0060908  -0.0624617  -0.0072283
    2   0.0002933  -0.0375292   0.0531968   0.0078773  -0.0264242   0.0093688
    3   0.0439107   0.0134279  -0.0297520  -0.0005999   0.0187944  -0.0310988
    4  -0.0504265   0.0009687  -0.0254798  -0.0056249   0.0128465   0.0456977
    5  -0.0096131   0.0000034   0.0002672  -0.0015412   0.0014411  -0.0028345
    6   0.0040558  -0.0017866   0.0060181   0.0094609  -0.0621861  -0.0151199
    7   0.0096818   0.0114728  -0.0067983   0.0000324   0.0009643   0.0014650
    8  -0.0280638   0.0003540   0.0027918   0.0001268   0.0007772   0.0088799
    9   0.8834127   0.0011342  -0.0007155   0.0001636  -0.0014370   0.0017184
   10  -0.0009238   0.7219798   0.8829211  -0.0008230   0.0165492  -0.0007180
   11  -0.0002332  -0.0000009   0.0003396   0.0031324  -0.0169284  -0.0001529
   12  -0.0007082   0.0005782  -0.0001917   0.0000070   0.0011167   0.0003295
   13   0.8525298  -0.0002899   0.0000450  -0.0001489   0.0006523   0.0000937
   14  -0.0002899   0.7536264  -0.0040805  -0.0023775   0.0145609  -0.0011209
   15   0.0000450  -0.0040805   0.8998253  -0.0000019  -0.0025787   0.0066780
   16  -0.0001489  -0.0023775  -0.0000019   2.8761707   0.7154482   0.4229861
   17   0.0006523   0.0145609  -0.0025787   0.7154482   3.1593882   1.6698424
   18   0.0000937  -0.0011209   0.0066780   0.4229861   1.6698424   3.5588997
   19  -0.0009260  -0.0086878  -0.0033787  -0.3960212  -0.3421245   1.4624847
   20   0.0000643  -0.0133779   0.0007648   0.1337236  -0.1861959  -0.1036587
   21   0.0000850  -0.0032526   0.0013576   1.1904538  -0.2131914   0.2076487
   22  -0.0000399  -0.0085864   0.0008498   0.0174860   0.5461393  -0.0532174
   23   0.0000844   0.0575326   0.0017636   0.0001960  -0.0436028   0.1083354
   24   0.0000788   0.0019277   0.0001224   0.0124580   0.0745803  -0.0053083
   25   0.0000150  -0.0002708   0.0000498   0.8475248  -0.0288027   0.0261168
   26   0.0002732   0.0050262  -0.0001033  -0.0400447   0.1484242  -0.1429443
   27   0.0000053  -0.0000024  -0.0000715  -0.0459900   0.8607094   0.0965757
   28  -0.0000016  -0.0002653   0.0000217   0.0015588   0.0054367   0.0193431
   29  -0.0000008   0.0000230  -0.0000024   0.0016033   0.0081115   0.0211359
   30  -0.0000073  -0.0004182   0.0000527  -0.0009860   0.0489270  -0.1863982
           19          20          21          22          23          24
    1  -0.1341658   0.4912129  -0.0570496   0.0002557   0.0195116   0.0050160
    2   0.0023277  -0.1187532   0.0067804   0.0347667  -0.1294191   0.0435013
    3   0.0347976   0.0186819   0.0080590  -0.0254104   0.0516511  -0.0067604
    4  -0.0657821   0.0116505  -0.0034465  -0.0031566  -0.0000328   0.0118187
    5   0.0093969  -0.0006737  -0.0001378  -0.0003132   0.0001223   0.0014734
    6   0.0741797  -0.0026850  -0.0059835   0.0078188   0.0277637  -0.0337119
    7  -0.0012599  -0.0019079   0.0012660   0.0010214   0.0003124  -0.0000105
    8  -0.0130869   0.0015442   0.0023614  -0.0002519   0.0027452   0.0003003
    9  -0.0009125   0.0004721   0.0000566   0.0000701   0.0001931  -0.0001932
   10  -0.0183892   0.0283548  -0.0048525  -0.0069133   0.0414249  -0.0007177
   11   0.0139548   0.0139514  -0.0070726   0.0031352   0.0034312   0.0097709
   12  -0.0007501  -0.0002628   0.0000853   0.0000245   0.0000417  -0.0000050
   13  -0.0009260   0.0000643   0.0000850  -0.0000399   0.0000844   0.0000788
   14  -0.0086878  -0.0133779  -0.0032526  -0.0085864   0.0575326   0.0019277
   15  -0.0033787   0.0007648   0.0013576   0.0008498   0.0017636   0.0001224
   16  -0.3960212   0.1337236   1.1904538   0.0174860   0.0001960   0.0124580
   17  -0.3421245  -0.1861959  -0.2131914   0.5461393  -0.0436028   0.0745803
   18   1.4624847  -0.1036587   0.2076487  -0.0532174   0.1083354  -0.0053083
   19   3.3741297   0.8747673  -0.1082785   0.4235556   1.6502183   0.0981171
   20   0.8747673   2.8114147   0.9738956   0.0060885   0.0070861  -0.0776008
   21  -0.1082785   0.9738956   3.8359672   0.0006110   0.0552094   1.8773582
   22   0.4235556   0.0060885   0.0006110   3.8335372   0.0276541  -0.0277436
   23   1.6502183   0.0070861   0.0552094   0.0276541   1.8189226   0.0049316
   24   0.0981171  -0.0776008   1.8773582  -0.0277436   0.0049316   1.8519637
   25  -0.0440515   0.0204725  -0.0128548   0.0082281   0.0004840  -0.0199200
   26  -0.1012379   0.7349359  -0.0954281  -0.0364286  -0.0499349  -0.1191449
   27  -0.0527370  -0.0017722   0.0235916   0.0205881   0.0011781   0.0015669
   28  -0.0003287   0.0003223   0.0006718   0.9158552  -0.0067575  -0.0000022
   29   0.0031720   0.0000819   0.0004622   0.9088167  -0.0062902  -0.0000001
   30   0.0192759   0.0002324  -0.0024387   1.0726338  -0.0069110   0.0000607
           25          26          27          28          29          30
    1   0.0009573  -0.0124682  -0.0010957  -0.0001401  -0.0001570   0.0001609
    2  -0.0032554  -0.0535486  -0.0003742   0.0009717   0.0009923  -0.0001166
    3   0.0035117  -0.0185233   0.0005605  -0.0004503  -0.0005061  -0.0001881
    4  -0.0019864  -0.0227413   0.0001076  -0.0001872  -0.0002015   0.0001480
    5   0.0001479  -0.0058848   0.0000464   0.0000052   0.0000061   0.0000148
    6   0.0011838  -0.0178272  -0.0011096   0.0001967   0.0001625  -0.0001911
    7  -0.0000190  -0.0068662  -0.0000224  -0.0000016   0.0000104   0.0000488
    8  -0.0000163   0.0013692   0.0000125  -0.0001373  -0.0001540   0.0001370
    9  -0.0000128   0.0000743   0.0000198  -0.0000012  -0.0000017  -0.0000392
   10  -0.0004113   0.0173559   0.0005274  -0.0000735  -0.0001106  -0.0000834
   11   0.0002697  -0.0005442  -0.0002337   0.0000247   0.0000119   0.0000149
   12   0.0000069  -0.0004910  -0.0000118  -0.0000170  -0.0000153   0.0000322
   13   0.0000150   0.0002732   0.0000053  -0.0000016  -0.0000008  -0.0000073
   14  -0.0002708   0.0050262  -0.0000024  -0.0002653   0.0000230  -0.0004182
   15   0.0000498  -0.0001033  -0.0000715   0.0000217  -0.0000024   0.0000527
   16   0.8475248  -0.0400447  -0.0459900   0.0015588   0.0016033  -0.0009860
   17  -0.0288027   0.1484242   0.8607094   0.0054367   0.0081115   0.0489270
   18   0.0261168  -0.1429443   0.0965757   0.0193431   0.0211359  -0.1863982
   19  -0.0440515  -0.1012379  -0.0527370  -0.0003287   0.0031720   0.0192759
   20   0.0204725   0.7349359  -0.0017722   0.0003223   0.0000819   0.0002324
   21  -0.0128548  -0.0954281   0.0235916   0.0006718   0.0004622  -0.0024387
   22   0.0082281  -0.0364286   0.0205881   0.9158552   0.9088167   1.0726338
   23   0.0004840  -0.0499349   0.0011781  -0.0067575  -0.0062902  -0.0069110
   24  -0.0199200  -0.1191449   0.0015669  -0.0000022  -0.0000001   0.0000607
   25   0.7994293  -0.0003982   0.0014794   0.0001602   0.0001737   0.0006471
   26  -0.0003982   0.1862440   0.0036450  -0.0004783  -0.0004054   0.0005835
   27   0.0014794   0.0036450   0.9081395   0.0000429  -0.0000037   0.0009071
   28   0.0001602  -0.0004783   0.0000429   0.8891373  -0.0345701  -0.0120617
   29   0.0001737  -0.0004054  -0.0000037  -0.0345701   0.8904598  -0.0118845
   30   0.0006471   0.0005835   0.0009071  -0.0120617  -0.0118845   0.9221529


 JobOver = TRUE
Archival summary:
1\1\qciep03\SP\HF\BasisUnspecified\271011\jcartus\ThuJan2518:00:092018ThuJan2518:00:092018\0\\#,HF,BasisUnspecified,\\0,1\N\H,1,1.04198\C,1,1.37681,2,115.68\O,3,1.21808,1,124.118,2,-0.0224844,0\C,1,1.38277,2,117.006,3,-179.893,0\O,5,1.23256,1,120.943,2,0.00314858,0\N,3,1.38396,1,113.17,2,179.977,0\H,7,1.00628,3,115.213,1,-179.985,0\C,7,1.37066,3,123.663,1,0.0882043,0\H,9,1.08096,7,115.628,3,179.967,0\C,9,1.35159,7,122.252,3,-0.021202,0\C,11,1.49224,9,123.801,7,179.995,0\H,12,1.08809,11,110.928,9,0.0074907,0\H,12,1.08888,11,110.544,9,-120.933,0\H,12,1.08888,11,110.546,9,120.951,0\N,2,1.81885,1,179.128,3,154.611,0\C,16,1.34293,2,123.371,1,26.1189,0\N,17,1.34037,16,119.893,2,1.83977,0\H,18,1.00338,17,118.315,16,-176.964,0\H,18,1.01557,17,120.275,16,-3.87015,0\C,16,1.35,2,117.065,1,-152.651,0\H,21,1.0827,16,114.73,2,-1.21136,0\N,21,1.33,16,128.356,2,178.774,0\C,23,1.33954,21,110.79,16,-0.057785,0\N,24,1.37318,23,128.311,21,-179.868,0\H,25,1.0064,24,125.832,23,-0.0503379,0\C,25,1.36774,24,106.909,23,179.912,0\H,27,1.07713,25,121.707,24,-179.978,0\N,27,1.32246,25,113.455,24,0.0206325,0\C,29,1.37542,27,103.355,25,-0.00197807,0\\HF=-916.275729\\@

 Total job time:  1960.76s(wall), 1945.62s(cpu) 
 Thu Jan 25 18:00:09 2018

        *************************************************************
        *                                                           *
        *  Thank you very much for using Q-Chem.  Have a nice day.  *
        *                                                           *
        *************************************************************


*** MISSION COMPLETED -- STARFLEET OUT ***

0 sent ACK to 0 
now end server 0 ... 
