Process 0 of 1 is on qciep03 - thread support 0
initial socket setup ...start
initial socket setup ...done 
now start server 0 ... 
qciep03.tugraz.at 127.0.1
Q-Chem Developer Version! Running on 127.0.1.*
                  Welcome to Q-Chem
     A Quantum Leap Into The Future Of Chemistry


 Q-Chem 5.0, Q-Chem, Inc., Pleasanton, CA (2017)

 Yihan Shao,  Zhengting Gan,  E. Epifanovsky,  A. T. B. Gilbert,  M. Wormit,  
 J. Kussmann,  A. W. Lange,  A. Behn,  Jia Deng,  Xintian Feng,  D. Ghosh,  
 M. Goldey,  P. R. Horn,  L. D. Jacobson,  I. Kaliman,  T. Kus,  A. Landau,  
 Jie Liu,  E. I. Proynov,  R. M. Richard,  R. P. Steele,  E. J. Sundstrom,  
 H. L. Woodcock III,  P. M. Zimmerman,  D. Zuev,  B. Albrecht,  E. Alguire,  
 S. A. Baeppler,  D. Barton,  Z. Benda,  Y. A. Bernard,  E. J. Berquist,  
 K. B. Bravaya,  H. Burton,  D. Casanova,  Chun-Min Chang,  Yunqing Chen,  
 A. Chien,  K. D. Closser,  M. P. Coons,  S. Dasgupta,  A. L. Dempwolff,  
 M. Diedenhofen,  Hainam Do,  R. G. Edgar,  Po-Tung Fang,  S. Fatehi,  
 Qingguo Feng,  J. Fosso-Tande,  Qinghui Ge,  A. Ghysels,  G. Gidofalvi,  
 J. Gomes,  J. Gonthier,  A. Gunina,  M. W. D. Hanson-Heine,  
 P. H. P. Harbach,  A. W. Hauser,  J. E. Herr,  E. G. Hohenstein,  
 Z. C. Holden,  Kerwin Hui,  T.-C. Jagau,  Hyunjun Ji,  B. Kaduk,  
 K. Khistyaev,  Jaehoon Kim,  P. Klunzinger,  K. Koh,  D. Kosenkov,  
 L. Koulias,  T. Kowalczyk,  C. M. Krauter,  A. Kunitsa,  Ka Un Lao,  
 A. Laurent,  K. V. Lawler,  Joonho Lee,  D. Lefrancois,  S. Lehtola,  
 D. S. Levine,  Yi-Pei Li,  You-Sheng Lin,  Fenglai Liu,  E. Livshits,  
 A. Luenser,  P. Manohar,  E. Mansoor,  S. F. Manzer,  Shan-Ping Mao,  
 Yuezhi Mao,  N. Mardirossian,  A. V. Marenich,  T. Markovich,  
 L. A. Martinez-Martinez,  S. A. Maurer,  N. J. Mayhall,  S. C. McKenzie,  
 J.-M. Mewes,  A. F. Morrison,  J. W. Mullinax,  K. Nanda,  
 T. S. Nguyen-Beck,  R. Olivares-Amaya,  J. A. Parkhill,  T. M. Perrine,  
 F. Plasser,  S. Prager,  A. Prociuk,  E. Ramos,  D. R. Rehn,  F. Rob,  
 M. Schneider,  N. Sergueev,  S. M. Sharada,  S. Sharma,  D. W. Small,  
 T. Stauch,  T. Stein,  Yu-Chuan Su,  A. J. W. Thom,  A. Tkatchenko,  
 T. Tsuchimochi,  L. Vogt,  O. Vydrov,  M. A. Watson,  J. Wenzel,  
 M. de Wergifosse,  T. A. Wesolowski,  A. White,  J. Witte,  A. Yamada,  
 Jun Yang,  K. Yao,  S. Yeganeh,  S. R. Yost,  Zhi-Qiang You,  A. Zech,  
 Igor Ying Zhang,  Xing Zhang,  Yan Zhao,  Ying Zhu,  B. R. Brooks,  
 G. K. L. Chan,  C. J. Cramer,  M. S. Gordon,  W. J. Hehre,  A. Klamt,  
 M. W. Schmidt,  C. D. Sherrill,  D. G. Truhlar,  A. Aspuru-Guzik,  R. Baer,  
 A. T. Bell,  N. A. Besley,  Jeng-Da Chai,  R. A. DiStasio Jr.,  A. Dreuw,  
 B. D. Dunietz,  T. R. Furlani,  Chao-Ping Hsu,  Yousung Jung,  Jing Kong,  
 D. S. Lambrecht,  WanZhen Liang,  C. Ochsenfeld,  V. A. Rassolov,  
 L. V. Slipchenko,  J. E. Subotnik,  T. Van Voorhis,  J. M. Herbert,  
 A. I. Krylov,  P. M. W. Gill,  M. Head-Gordon

 Contributors to earlier versions of Q-Chem not listed above: 
 R. D. Adamson,  B. Austin,  J. Baker,  G. J. O. Beran,  K. Brandhorst,  
 S. T. Brown,  E. F. C. Byrd,  A. K. Chakraborty,  C.-L. Cheng,  
 Siu Hung Chien,  D. M. Chipman,  D. L. Crittenden,  H. Dachsel,  
 R. J. Doerksen,  A. D. Dutoi,  L. Fusti-Molnar,  W. A. Goddard III,  
 A. Golubeva-Zadorozhnaya,  S. R. Gwaltney,  G. Hawkins,  A. Heyden,  
 S. Hirata,  G. Kedziora,  F. J. Keil,  C. Kelley,  Jihan Kim,  R. A. King,  
 R. Z. Khaliullin,  P. P. Korambath,  W. Kurlancheek,  A. M. Lee,  M. S. Lee,  
 S. V. Levchenko,  Ching Yeh Lin,  D. Liotard,  R. C. Lochan,  I. Lotan,  
 P. E. Maslen,  N. Nair,  D. P. O'Neill,  D. Neuhauser,  E. Neuscamman,  
 C. M. Oana,  R. Olson,  B. Peters,  R. Peverati,  P. A. Pieniazek,  
 Y. M. Rhee,  J. Ritchie,  M. A. Rohrdanz,  E. Rosta,  N. J. Russ,  
 H. F. Schaefer III,  N. E. Schultz,  N. Shenvi,  A. C. Simmonett,  A. Sodt,  
 D. Stuck,  K. S. Thanthiriwatte,  V. Vanovschi,  Tao Wang,  A. Warshel,  
 C. F. Williams,  Q. Wu,  X. Xu,  W. Zhang

 Please cite Q-Chem as follows:
 Y. Shao et al., Mol. Phys. 113, 184-215 (2015)
 DOI: 10.1080/00268976.2014.952696

 Q-Chem 5.0.2 for Intel X86 EM64T Linux

 Parts of Q-Chem use Armadillo 5.200.1 (Boston Tea Smuggler).
 http://arma.sourceforge.net/

 Q-Chem begins on Thu Jan 25 17:45:49 2018  


Host: 0

     Scratch files written to /home/jcartus/scratch/Adenine-thymine-Watson-Crick-complex_mono2.dir//
 Using version located at /usr/local/qchem/bin/qchem

 Parallel job on  1  processors

Total Memory Limit in MB = 2000
Mega-Array Size in MB = 192

Checking the input file for inconsistencies... 	...done.
Finally everything over in PARseQInput

--------------------------------------------------------------
User input:
--------------------------------------------------------------
$rem
SCF_PRINT                     1
BASIS                         6-311++g**
SCF_SAVE_MATRICES             1
SCF_CONVERGENCE               5
SCF_FINAL_PRINT               1
METHOD                        hf
JOBTYPE                       sp
$end

$molecule
0 1
N    0.2793014    2.4068393    -0.6057517
C    -1.084857    2.4457461    -0.5511608
H    -1.6594403    3.0230294    -1.2560905
N    -1.5977117    1.7179877    0.4287543
C    -0.4897255    1.1714358    1.030191
C    -0.3461366    0.291471    2.1172343
N    -1.418709    -0.1677767    2.8101441
H    -1.238875    -0.9594802    3.4047578
H    -2.2918734    -0.1788223    2.3073619
N    0.885763    -0.0700763    2.4919494
C    1.9352348    0.4072878    1.7968022
H    2.906033    0.0788414    2.1458181
N    1.9409775    1.2242019    0.7402202
C    0.6952186    1.5779858    0.4063984
H    0.8610073    2.8298045    -1.3104502
$end


--------------------------------------------------------------
 ----------------------------------------------------------------
             Standard Nuclear Orientation (Angstroms)
    I     Atom           X                Y                Z
 ----------------------------------------------------------------
    1      N       2.0714708550    -0.5740590501    -0.0037657255
    2      C       2.2749728666     0.7764837506     0.0028008999
    3      H       3.2672216767     1.1955436287    -0.0098076908
    4      N       1.1547371028     1.4818533058     0.0230853621
    5      C       0.1744497160     0.5189994261     0.0178366887
    6      C      -1.2288935953     0.6040302218     0.0138028578
    7      N      -1.8715345444     1.7988946781     0.0412898703
    8      H      -2.8482184074     1.7668120865    -0.1990421725
    9      H      -1.3510846331     2.5835432058    -0.3175786198
   10      N      -1.9405279842    -0.5283435291     0.0170686769
   11      C      -1.2811803215    -1.7020176906     0.0013589627
   12      H      -1.9102117139    -2.5831837487     0.0034002113
   13      N       0.0354447203    -1.9252874204    -0.0185476984
   14      C       0.7131378616    -0.7724625343    -0.0029891890
   15      H       2.7802428666    -1.2843201039    -0.0877464458
 ----------------------------------------------------------------
 Molecular Point Group                 C1    NOp =  1
 Largest Abelian Subgroup              C1    NOp =  1
 Nuclear Repulsion Energy =   503.3656469531 hartrees
 There are       35 alpha and       35 beta electrons
 Requested basis set is 6-311++G(d,p)
 There are 85 shells and 255 basis functions

 Total QAlloc Memory Limit   2000 MB
 Mega-Array Size       188 MB
 MEM_STATIC part       192 MB

finished with qalloc call

                       Distance Matrix (Angstroms)
             N (  1)   C (  2)   H (  3)   N (  4)   C (  5)   C (  6)
   C (  2)  1.365805
   H (  3)  2.135732  1.077185
   N (  4)  2.251199  1.323966  2.132052
   C (  5)  2.189505  2.116299  3.166025  1.374074
   C (  6)  3.504370  3.508125  4.534920  2.540149  1.405923
   N (  7)  4.602198  4.270870  5.174308  3.042888  2.413448  1.356998
   H (  8)  5.451711  5.221933  6.144979  4.019228  3.277285  2.004888
   H (  9)  4.667207  4.064037  4.832186  2.758426  2.588841  2.010775
   N ( 10)  4.012313  4.412848  5.485724  3.690744  2.360097  1.337425
   C ( 11)  3.537314  4.334651  5.392953  4.008890  2.655569  2.306674
   H ( 12)  4.459869  5.366855  6.409740  5.091053  3.737588  3.259238
   N ( 13)  2.443653  3.509346  4.492666  3.586524  2.448507  2.827905
   C ( 14)  1.372747  2.199681  3.224351  2.297309  1.399462  2.380441
   H ( 15)  1.006917  2.123772  2.528428  3.210338  3.170689  4.432759
             N (  7)   H (  8)   H (  9)   N ( 10)   C ( 11)   H ( 12)
   H (  8)  1.006330
   H (  9)  1.007635  1.709535
   N ( 10)  2.328387  2.477568  3.184850
   C ( 11)  3.550563  3.811633  4.297981  1.346290
   H ( 12)  4.382413  4.454582  5.206795  2.055109  1.082653
   N ( 13)  4.184457  4.688250  4.726673  2.420163  1.335570  2.053993
   C ( 14)  3.646145  4.378311  3.952563  2.664946  2.200317  3.187588
   H ( 15)  5.582284  6.403231  5.664014  4.782067  4.083818  4.867825
             N ( 13)   C ( 14)
   C ( 14)  1.337354
   H ( 15)  2.819494  2.131221

 Job number = 2, Threshold = 1.00E-08
Integral type ranges set in mkLRange.C for JobNum: 2  <1-21|1-21>
Symmetry turned off temporarily
 Using the largest function pair in Schwarz integrals
Total number of integrals generated =          517164
Symmetry turned back on
 A cutoff of  1.0D-08 yielded   3037 shell pairs
 There are     28661 function pairs (     30888 Cartesian)
 Job number = 11, Threshold = 1.00E-08
Integral type ranges set in mkLRange.C for JobNum: 11  <1-21|22-22>
Total number of integrals generated =          463305
 Smallest overlap matrix eigenvalue = 3.38E-06

 Q-Chem warning in module /usr/local/qchem/stvman/mkSTV.C, line 295:

 Overlap eigenvalue is smaller than square root of threshold

 Multipole matrices computed through 2nd order

 Scale SEOQF with 1.000000e-01/1.000000e-01/1.000000e-01

 Standard Electronic Orientation quadrupole field applied
 Nucleus-field energy     =     0.0000000145 hartrees
 ENuRep (before)= 503.3656469531
 ENucField = 0.0000000145
 ENuRep (after) = 503.3656469677
 Guess from superposition of atomic densities
 Warning:  Energy on first SCF cycle will be non-variational
 SAD guess density has 70.000000 electrons

 ==================================================
    GEN_SCFMAN: A general SCF calculation manager  
                                                   
    Authors:                                       
        -- Eric Jon Sundstrom 2008-2014            
        -- Paul Horn 2010-2015                     
        -- Yuezhi Mao 2012-                        
        -- Dmitri Zuev 2014                        
        -- Alec White 2015-                        
        -- David Stuck 2015                        
        -- Shaama M.S. 2015                        
        -- Shane Yost 2015-                         
        -- Joonho Lee 2016-                        
        -- David Small 2016-                       
        -- Daniel Levine 2016-                     
        -- Susi Lehtola 2017-                      
        -- Hugh Burton 2017-                       
 ==================================================
 Hartree-Fock
Finding J and K together
 Job number = 22, Threshold = 1.00E-08
Integral type ranges set in mkLRange.C for JobNum: 22  <1-21|1-21>
 MakeJK  time:  CPU       9.07 s  wall       9.14 s
 HF Exchange:              -62.31457811592612
 One-Electron:             -1625.66188866489028
 Total Coulomb:            715.55206510556786
 Nuclear repulsion:        503.36564696766311
 A restricted SCF calculation will be
 performed using DIIS
 SCF converges when DIIS error is below 1.0e-05
 ---------------------------------------
  Cycle       Energy         DIIS error
 ---------------------------------------
Finding J and K together
 Job number = 22, Threshold = 1.00E-08
Integral type ranges set in mkLRange.C for JobNum: 22  <1-21|1-21>
 MakeJK  time:  CPU      49.77 s  wall      49.96 s
 HF Exchange:              -60.75230623069622
 One-Electron:             -1628.25080740197700
 Total Coulomb:            721.15589914402779
 Nuclear repulsion:        503.36564696766311
    1    -469.0587547076      4.76e-02  
Finding J and K together
 Job number = 22, Threshold = 1.00E-08
Integral type ranges set in mkLRange.C for JobNum: 22  <1-21|1-21>
 MakeJK  time:  CPU      47.17 s  wall      48.14 s
 HF Exchange:              -60.78749600657353
 One-Electron:             -1629.41788921274861
 Total Coulomb:            722.23734352010877
 Nuclear repulsion:        503.36564696766311
    2    -464.4815675210      3.91e-03  
Finding J and K together
 Job number = 22, Threshold = 1.00E-08
Integral type ranges set in mkLRange.C for JobNum: 22  <1-21|1-21>
 MakeJK  time:  CPU      51.34 s  wall      51.54 s
 HF Exchange:              -60.86461318242102
 One-Electron:             -1629.22729530443985
 Total Coulomb:            722.09723001130760
 Nuclear repulsion:        503.36564696766311
    3    -464.6023947316      2.00e-03  
Finding J and K together
 Job number = 22, Threshold = 1.00E-08
Integral type ranges set in mkLRange.C for JobNum: 22  <1-21|1-21>
 MakeJK  time:  CPU      42.34 s  wall      42.99 s
 HF Exchange:              -60.86327406289135
 One-Electron:             -1629.15569189828102
 Total Coulomb:            722.02069555739968
 Nuclear repulsion:        503.36564696766311
    4    -464.6290315079      6.12e-04  
Finding J and K together
 Job number = 22, Threshold = 1.00E-08
Integral type ranges set in mkLRange.C for JobNum: 22  <1-21|1-21>
 MakeJK  time:  CPU      39.09 s  wall      39.36 s
 HF Exchange:              -60.86391783661030
 One-Electron:             -1629.18620277073273
 Total Coulomb:            722.05155324453835
 Nuclear repulsion:        503.36564696766311
    5    -464.6326234361      1.80e-04  
Finding J and K together
 Job number = 22, Threshold = 1.00E-08
Integral type ranges set in mkLRange.C for JobNum: 22  <1-21|1-21>
 MakeJK  time:  CPU      51.41 s  wall      51.48 s
 HF Exchange:              -60.86625964108507
 One-Electron:             -1629.18622978681105
 Total Coulomb:            722.05387084736526
 Nuclear repulsion:        503.36564696766311
    6    -464.6329203951      5.50e-05  
Finding J and K together
 Job number = 22, Threshold = 1.00E-08
Integral type ranges set in mkLRange.C for JobNum: 22  <1-21|1-21>
 MakeJK  time:  CPU      50.66 s  wall      50.74 s
 HF Exchange:              -60.86627124682218
 One-Electron:             -1629.18476154807536
 Total Coulomb:            722.05240238655790
 Nuclear repulsion:        503.36564696766311
    7    -464.6329716129      2.36e-05  
Finding J and K together
 Job number = 22, Threshold = 1.00E-08
Integral type ranges set in mkLRange.C for JobNum: 22  <1-21|1-21>
 MakeJK  time:  CPU      49.63 s  wall      49.98 s
 HF Exchange:              -60.86637487007990
 One-Electron:             -1629.18282173790590
 Total Coulomb:            722.05056373021091
 Nuclear repulsion:        503.36564696766311
    8    -464.6329834407      1.08e-05  
    9    -464.6329859101      3.44e-06  Convergence criterion met
 ---------------------------------------
 SCF time:   CPU 394.25s  wall 397.00s 
 Total energy in the final basis set =     -464.6329859101
 HF Exchange:              -60.86637487007990
 One-Electron:             -1629.18282173790590
 Total Coulomb:            722.05056373021091
 Nuclear repulsion:        503.36564696766311
Wall  1 = 397
Clock 1 = 394.63781738281250
 ==================================================
                  Done GEN_SCFMAN                  
 ==================================================

Symmetry turned off temporarily

 --------------------------------------------------------------

                    Orbital Energies (a.u.)
 --------------------------------------------------------------

 Alpha MOs
 -- Occupied --
-15.638 -15.584 -15.573 -15.564 -15.556 -11.341 -11.330 -11.324
-11.316 -11.259  -1.377  -1.307  -1.253  -1.194  -1.160  -1.039
 -0.902  -0.883  -0.853  -0.783  -0.741  -0.702  -0.680  -0.643
 -0.638  -0.616  -0.597  -0.561  -0.502  -0.500  -0.456  -0.430
 -0.414  -0.378  -0.313
 -- Virtual --
  0.032   0.047   0.054   0.063   0.080   0.089   0.098   0.101
  0.116   0.125   0.131   0.138   0.141   0.150   0.154   0.164
  0.167   0.168   0.173   0.192   0.196   0.197   0.205   0.206
  0.214   0.238   0.247   0.258   0.266   0.279   0.282   0.288
  0.298   0.304   0.311   0.318   0.322   0.326   0.335   0.338
  0.345   0.351   0.360   0.365   0.382   0.387   0.390   0.400
  0.403   0.411   0.413   0.436   0.450   0.460   0.485   0.495
  0.518   0.527   0.564   0.587   0.627   0.637   0.667   0.701
  0.730   0.737   0.751   0.760   0.769   0.786   0.795   0.812
  0.834   0.841   0.864   0.885   0.920   0.927   0.964   0.989
  1.006   1.009   1.021   1.042   1.047   1.054   1.059   1.097
  1.102   1.117   1.121   1.126   1.131   1.133   1.143   1.169
  1.178   1.190   1.200   1.205   1.235   1.255   1.289   1.295
  1.329   1.353   1.378   1.399   1.415   1.450   1.472   1.504
  1.536   1.563   1.588   1.637   1.665   1.729   1.774   1.795
  1.802   1.836   1.863   1.894   1.921   1.940   1.980   1.990
  2.004   2.016   2.038   2.073   2.082   2.123   2.132   2.146
  2.191   2.216   2.224   2.284   2.324   2.388   2.410   2.462
  2.477   2.495   2.541   2.588   2.606   2.616   2.647   2.678
  2.757   2.808   2.867   2.881   2.885   2.900   2.933   2.959
  2.990   2.997   3.024   3.056   3.080   3.087   3.107   3.146
  3.179   3.205   3.216   3.220   3.252   3.256   3.265   3.283
  3.306   3.344   3.371   3.388   3.448   3.457   3.677   3.703
  3.742   3.871   3.905   3.934   3.992   4.056   4.087   4.135
  4.175   4.281   4.333   4.401   4.414   4.427   4.451   4.564
  4.837   4.979   5.034   5.181   5.287   5.355   5.484   5.603
  5.748   5.843  24.902  25.059  25.096  25.113  25.231  36.996
 37.036  37.087  37.154  37.176
 --------------------------------------------------------------

          Ground-State Mulliken Net Atomic Charges

     Atom                 Charge (a.u.)
  ----------------------------------------
      1 N                    -0.398302
      2 C                     0.275519
      3 H                     0.242263
      4 N                    -0.333097
      5 C                     0.139670
      6 C                    -0.062018
      7 N                    -0.398208
      8 H                     0.310929
      9 H                     0.282010
     10 N                    -0.350945
     11 C                     0.140144
     12 H                     0.246100
     13 N                    -0.294870
     14 C                    -0.157674
     15 H                     0.358480
  ----------------------------------------
  Sum of atomic charges =     0.000000

 -----------------------------------------------------------------
                    Cartesian Multipole Moments
 -----------------------------------------------------------------
    Charge (ESU x 10^10)
                 0.0000
    Dipole Moment (Debye)
         X       2.5993      Y       0.6198      Z      -1.0918
       Tot       2.8866
    Quadrupole Moments (Debye-Ang)
        XX     -44.0218     XY      -5.5885     YY     -59.3329
        XZ       1.5339     YZ      -2.4527     ZZ     -60.2751
    Octopole Moments (Debye-Ang^2)
       XXX      48.4207    XXY       3.6592    XYY     -17.6541
       YYY      11.9420    XXZ      -6.2530    XYZ       5.2222
       YYZ      -6.4759    XZZ       0.2118    YZZ      -0.4056
       ZZZ      -0.7874
    Hexadecapole Moments (Debye-Ang^3)
      XXXX    -712.6104   XXXY     -56.5304   XXYY    -189.7678
      XYYY     -21.6904   YYYY    -622.0698   XXXZ       8.1029
      XXYZ      -8.4959   XYYZ       9.9874   YYYZ     -17.3663
      XXZZ    -169.1734   XYZZ      -2.3930   YYZZ    -121.4560
      XZZZ       1.2561   YZZZ      -2.1188   ZZZZ     -64.3077
 -----------------------------------------------------------------
 Mayer SCF Bond Order, atomic valence on the diagonal:

            1           2           3           4           5           6
    1   2.9362837   0.9744938  -0.0592387   0.0822534  -0.0036647  -0.0257493
    2   0.9744938   3.4370234   0.9008208   1.5291762   0.0237001  -0.0339255
    3  -0.0592387   0.9008208   0.8759124  -0.0452062   0.0408417   0.0010285
    4   0.0822534   1.5291762  -0.0452062   2.8476236   1.4690906  -0.4258862
    5  -0.0036647   0.0237001   0.0408417   1.4690906   4.6856257   1.4858862
    6  -0.0257493  -0.0339255   0.0010285  -0.4258862   1.4858862   3.3259407
    7  -0.0022566   0.0208687  -0.0001513   0.0142557   0.1286990   0.9131973
    8   0.0002158  -0.0010827   0.0001037   0.0004212   0.0579545  -0.0532406
    9  -0.0000919   0.0014246  -0.0002099   0.0014211   0.0299775  -0.0271332
   10   0.0063523  -0.0053927  -0.0011369   0.0226113   0.4234678   1.0954442
   11   0.0098381   0.0287387   0.0012066   0.0038886   0.0794677   0.0342458
   12   0.0028384  -0.0030061  -0.0001092  -0.0005413   0.0105368   0.0126788
   13   0.0195489   0.0760532   0.0025139   0.0216272   0.0880114  -0.0485707
   14   1.0456340  -0.0507563   0.0364501   0.1636188   0.8310690   0.3957486
   15   0.8861102  -0.0240895  -0.0010006   0.0108932   0.0205879   0.0022169
            7           8           9          10          11          12
    1  -0.0022566   0.0002158  -0.0000919   0.0063523   0.0098381   0.0028384
    2   0.0208687  -0.0010827   0.0014246  -0.0053927   0.0287387  -0.0030061
    3  -0.0001513   0.0001037  -0.0002099  -0.0011369   0.0012066  -0.0001092
    4   0.0142557   0.0004212   0.0014211   0.0226113   0.0038886  -0.0005413
    5   0.1286990   0.0579545   0.0299775   0.4234678   0.0794677   0.0105368
    6   0.9131973  -0.0532406  -0.0271332   1.0954442   0.0342458   0.0126788
    7   2.8154073   0.9079825   0.8978187  -0.0850734   0.0062306   0.0029754
    8   0.9079825   0.8801086  -0.0078409  -0.0258494   0.0010784   0.0003877
    9   0.8978187  -0.0078409   0.9164398   0.0152062   0.0044584   0.0000142
   10  -0.0850734  -0.0258494   0.0152062   2.7058791   1.2823127  -0.0701193
   11   0.0062306   0.0010784   0.0044584   1.2823127   3.6935408   0.9314142
   12   0.0029754   0.0003877   0.0000142  -0.0701193   0.9314142   0.8467499
   13   0.0100597   0.0003950   0.0000028   0.0329293   1.2220995  -0.0727899
   14   0.0012492  -0.0003500   0.0013579   0.0135651   0.0868032   0.0324152
   15  -0.0004483  -0.0000668   0.0000343   0.0015620   0.0017582   0.0000549
           13          14          15
    1   0.0195489   1.0456340   0.8861102
    2   0.0760532  -0.0507563  -0.0240895
    3   0.0025139   0.0364501  -0.0010006
    4   0.0216272   0.1636188   0.0108932
    5   0.0880114   0.8310690   0.0205879
    6  -0.0485707   0.3957486   0.0022169
    7   0.0100597   0.0012492  -0.0004483
    8   0.0003950  -0.0003500  -0.0000668
    9   0.0000028   0.0013579   0.0000343
   10   0.0329293   0.0135651   0.0015620
   11   1.2220995   0.0868032   0.0017582
   12  -0.0727899   0.0324152   0.0000549
   13   2.7573983   1.4167843  -0.0112664
   14   1.4167843   3.9442212  -0.0293680
   15  -0.0112664  -0.0293680   0.8569779


 JobOver = TRUE
Archival summary:
1\1\qciep03\SP\HF\BasisUnspecified\555\jcartus\ThuJan2517:52:282018ThuJan2517:52:282018\0\\#,HF,BasisUnspecified,\\0,1\C\N,1,1.37407\C,2,1.32397,1,103.312\H,3,1.07719,2,124.912,1,179.362,0\N,3,1.3658,2,113.629,1,-0.516037,0\H,5,1.00692,3,126.372,2,175.096,0\C,5,1.37275,3,106.879,2,0.720229,0\N,7,1.33735,5,128.756,3,179.417,0\C,8,1.33557,7,110.81,5,179.41,0\H,9,1.08265,8,115.896,7,-179.257,0\N,9,1.34629,8,128.955,7,0.868512,0\C,11,1.33742,9,118.522,8,-0.0350709,0\N,12,1.357,11,119.57,9,-179.423,0\H,13,1.00633,12,115.259,11,-16.703,0\H,13,1.00763,12,115.712,11,-156.921,0\\HF=-464.632986\\@

 Total job time:  398.95s(wall), 395.77s(cpu) 
 Thu Jan 25 17:52:28 2018

        *************************************************************
        *                                                           *
        *  Thank you very much for using Q-Chem.  Have a nice day.  *
        *                                                           *
        *************************************************************


*** MISSION COMPLETED -- STARFLEET OUT ***

0 sent ACK to 0 
now end server 0 ... 
