Process 0 of 1 is on qciep03 - thread support 0
initial socket setup ...start
initial socket setup ...done 
now start server 0 ... 
qciep03.tugraz.at 127.0.1
Q-Chem Developer Version! Running on 127.0.1.*
                  Welcome to Q-Chem
     A Quantum Leap Into The Future Of Chemistry


 Q-Chem 5.0, Q-Chem, Inc., Pleasanton, CA (2017)

 Yihan Shao,  Zhengting Gan,  E. Epifanovsky,  A. T. B. Gilbert,  M. Wormit,  
 J. Kussmann,  A. W. Lange,  A. Behn,  Jia Deng,  Xintian Feng,  D. Ghosh,  
 M. Goldey,  P. R. Horn,  L. D. Jacobson,  I. Kaliman,  T. Kus,  A. Landau,  
 Jie Liu,  E. I. Proynov,  R. M. Richard,  R. P. Steele,  E. J. Sundstrom,  
 H. L. Woodcock III,  P. M. Zimmerman,  D. Zuev,  B. Albrecht,  E. Alguire,  
 S. A. Baeppler,  D. Barton,  Z. Benda,  Y. A. Bernard,  E. J. Berquist,  
 K. B. Bravaya,  H. Burton,  D. Casanova,  Chun-Min Chang,  Yunqing Chen,  
 A. Chien,  K. D. Closser,  M. P. Coons,  S. Dasgupta,  A. L. Dempwolff,  
 M. Diedenhofen,  Hainam Do,  R. G. Edgar,  Po-Tung Fang,  S. Fatehi,  
 Qingguo Feng,  J. Fosso-Tande,  Qinghui Ge,  A. Ghysels,  G. Gidofalvi,  
 J. Gomes,  J. Gonthier,  A. Gunina,  M. W. D. Hanson-Heine,  
 P. H. P. Harbach,  A. W. Hauser,  J. E. Herr,  E. G. Hohenstein,  
 Z. C. Holden,  Kerwin Hui,  T.-C. Jagau,  Hyunjun Ji,  B. Kaduk,  
 K. Khistyaev,  Jaehoon Kim,  P. Klunzinger,  K. Koh,  D. Kosenkov,  
 L. Koulias,  T. Kowalczyk,  C. M. Krauter,  A. Kunitsa,  Ka Un Lao,  
 A. Laurent,  K. V. Lawler,  Joonho Lee,  D. Lefrancois,  S. Lehtola,  
 D. S. Levine,  Yi-Pei Li,  You-Sheng Lin,  Fenglai Liu,  E. Livshits,  
 A. Luenser,  P. Manohar,  E. Mansoor,  S. F. Manzer,  Shan-Ping Mao,  
 Yuezhi Mao,  N. Mardirossian,  A. V. Marenich,  T. Markovich,  
 L. A. Martinez-Martinez,  S. A. Maurer,  N. J. Mayhall,  S. C. McKenzie,  
 J.-M. Mewes,  A. F. Morrison,  J. W. Mullinax,  K. Nanda,  
 T. S. Nguyen-Beck,  R. Olivares-Amaya,  J. A. Parkhill,  T. M. Perrine,  
 F. Plasser,  S. Prager,  A. Prociuk,  E. Ramos,  D. R. Rehn,  F. Rob,  
 M. Schneider,  N. Sergueev,  S. M. Sharada,  S. Sharma,  D. W. Small,  
 T. Stauch,  T. Stein,  Yu-Chuan Su,  A. J. W. Thom,  A. Tkatchenko,  
 T. Tsuchimochi,  L. Vogt,  O. Vydrov,  M. A. Watson,  J. Wenzel,  
 M. de Wergifosse,  T. A. Wesolowski,  A. White,  J. Witte,  A. Yamada,  
 Jun Yang,  K. Yao,  S. Yeganeh,  S. R. Yost,  Zhi-Qiang You,  A. Zech,  
 Igor Ying Zhang,  Xing Zhang,  Yan Zhao,  Ying Zhu,  B. R. Brooks,  
 G. K. L. Chan,  C. J. Cramer,  M. S. Gordon,  W. J. Hehre,  A. Klamt,  
 M. W. Schmidt,  C. D. Sherrill,  D. G. Truhlar,  A. Aspuru-Guzik,  R. Baer,  
 A. T. Bell,  N. A. Besley,  Jeng-Da Chai,  R. A. DiStasio Jr.,  A. Dreuw,  
 B. D. Dunietz,  T. R. Furlani,  Chao-Ping Hsu,  Yousung Jung,  Jing Kong,  
 D. S. Lambrecht,  WanZhen Liang,  C. Ochsenfeld,  V. A. Rassolov,  
 L. V. Slipchenko,  J. E. Subotnik,  T. Van Voorhis,  J. M. Herbert,  
 A. I. Krylov,  P. M. W. Gill,  M. Head-Gordon

 Contributors to earlier versions of Q-Chem not listed above: 
 R. D. Adamson,  B. Austin,  J. Baker,  G. J. O. Beran,  K. Brandhorst,  
 S. T. Brown,  E. F. C. Byrd,  A. K. Chakraborty,  C.-L. Cheng,  
 Siu Hung Chien,  D. M. Chipman,  D. L. Crittenden,  H. Dachsel,  
 R. J. Doerksen,  A. D. Dutoi,  L. Fusti-Molnar,  W. A. Goddard III,  
 A. Golubeva-Zadorozhnaya,  S. R. Gwaltney,  G. Hawkins,  A. Heyden,  
 S. Hirata,  G. Kedziora,  F. J. Keil,  C. Kelley,  Jihan Kim,  R. A. King,  
 R. Z. Khaliullin,  P. P. Korambath,  W. Kurlancheek,  A. M. Lee,  M. S. Lee,  
 S. V. Levchenko,  Ching Yeh Lin,  D. Liotard,  R. C. Lochan,  I. Lotan,  
 P. E. Maslen,  N. Nair,  D. P. O'Neill,  D. Neuhauser,  E. Neuscamman,  
 C. M. Oana,  R. Olson,  B. Peters,  R. Peverati,  P. A. Pieniazek,  
 Y. M. Rhee,  J. Ritchie,  M. A. Rohrdanz,  E. Rosta,  N. J. Russ,  
 H. F. Schaefer III,  N. E. Schultz,  N. Shenvi,  A. C. Simmonett,  A. Sodt,  
 D. Stuck,  K. S. Thanthiriwatte,  V. Vanovschi,  Tao Wang,  A. Warshel,  
 C. F. Williams,  Q. Wu,  X. Xu,  W. Zhang

 Please cite Q-Chem as follows:
 Y. Shao et al., Mol. Phys. 113, 184-215 (2015)
 DOI: 10.1080/00268976.2014.952696

 Q-Chem 5.0.2 for Intel X86 EM64T Linux

 Parts of Q-Chem use Armadillo 5.200.1 (Boston Tea Smuggler).
 http://arma.sourceforge.net/

 Q-Chem begins on Thu Feb  1 12:06:08 2018  


Host: 0

     Scratch files written to /home/jcartus/scratch/19_benCl-acetone_mono2.dir//
 Using version located at /usr/local/qchem/bin/qchem

 Parallel job on  1  processors

Total Memory Limit in MB = 2000
Mega-Array Size in MB = 192

Checking the input file for inconsistencies... 	...done.
Finally everything over in PARseQInput

--------------------------------------------------------------
User input:
--------------------------------------------------------------
$rem
SCF_PRINT                     1
BASIS                         6-311++g**
SCF_SAVE_MATRICES             1
SCF_CONVERGENCE               5
SCF_FINAL_PRINT               1
METHOD                        hf
JOBTYPE                       sp
$end

$molecule
0 1
O    -3.696572914    0.000152987    -3.61861755
C    -4.843989757    0.001944155    -3.211415447
C    -6.003097569    -0.000552348    -4.185876962
C    -5.132206123    0.006671195    -1.72526393
H    -5.91776328    0.87330307    -4.829393925
H    -5.918845591    -0.878698982    -4.823653257
H    -6.973224937    0.001637767    -3.699032662
H    -6.193070441    0.008055248    -1.495292581
H    -4.662540213    -0.867116113    -1.276801052
H    -4.661407822    0.882569128    -1.28215677
$end


--------------------------------------------------------------
 ----------------------------------------------------------------
             Standard Nuclear Orientation (Angstroms)
    I     Atom           X                Y                Z
 ----------------------------------------------------------------
    1      O       0.0009679706    -1.3754397660    -0.0000010294
    2      C      -0.0003383696    -0.1579092876     0.0000067929
    3      C       1.3048523379     0.6099381020    -0.0000013278
    4      C      -1.3053431046     0.6093585872     0.0000020019
    5      H       1.8806675099     0.3161919606     0.8758807454
    6      H       1.8804631669     0.3165654886    -0.8761309941
    7      H       1.1693453481     1.6868814974     0.0002396828
    8      H      -1.1684211268     1.6861938460     0.0001907784
    9      H      -1.8823274903     0.3148283487    -0.8749552752
   10      H      -1.8824963548     0.3145325769     0.8747384959
 ----------------------------------------------------------------
 Molecular Point Group                 C1    NOp =  1
 Largest Abelian Subgroup              C1    NOp =  1
 Nuclear Repulsion Energy =   119.3621264179 hartrees
 There are       16 alpha and       16 beta electrons
 Requested basis set is 6-311++G(d,p)
 There are 54 shells and 130 basis functions

 Total QAlloc Memory Limit   2000 MB
 Mega-Array Size       188 MB
 MEM_STATIC part       192 MB

finished with qalloc call

                       Distance Matrix (Angstroms)
             O (  1)   C (  2)   C (  3)   C (  4)   H (  5)   H (  6)
   C (  2)  1.217531
   C (  3)  2.375256  1.514303
   C (  4)  2.376105  1.513849  2.610196
   H (  5)  2.676202  2.128406  1.088586  3.317194
   H (  6)  2.676376  2.128417  1.088576  3.317032  1.752012
   H (  7)  3.277639  2.184356  1.085435  2.699100  1.775251  1.775241
   H (  8)  3.277357  2.182919  2.697296  1.085505  3.455529  3.455361
   H (  9)  2.677565  2.128596  3.318245  1.088673  4.150369  3.762791
   H ( 10)  2.677427  2.128585  3.318377  1.088665  3.763164  4.150351
             H (  7)   H (  8)   H (  9)
   H (  8)  2.337767
   H (  9)  3.458497  1.776566
   H ( 10)  3.458588  1.776567  1.749694

 Job number = 2, Threshold = 1.00E-08
Integral type ranges set in mkLRange.C for JobNum: 2  <1-21|1-21>
Symmetry turned off temporarily
 Using the largest function pair in Schwarz integrals
Total number of integrals generated =          119290
Symmetry turned back on
 A cutoff of  1.0D-08 yielded   1410 shell pairs
 There are      8390 function pairs (      8938 Cartesian)
 Job number = 11, Threshold = 1.00E-08
Integral type ranges set in mkLRange.C for JobNum: 11  <1-21|22-22>
Total number of integrals generated =           89380
 Smallest overlap matrix eigenvalue = 7.95E-05

 Q-Chem warning in module /usr/local/qchem/stvman/mkSTV.C, line 295:

 Overlap eigenvalue is smaller than square root of threshold

 Multipole matrices computed through 2nd order

 Scale SEOQF with 1.000000e-01/1.000000e-01/1.000000e-01

 Standard Electronic Orientation quadrupole field applied
 Nucleus-field energy     =     0.0000000028 hartrees
 ENuRep (before)= 119.3621264179
 ENucField = 0.0000000028
 ENuRep (after) = 119.3621264208
 Guess from superposition of atomic densities
 Warning:  Energy on first SCF cycle will be non-variational
 SAD guess density has 32.000000 electrons

 ==================================================
    GEN_SCFMAN: A general SCF calculation manager  
                                                   
    Authors:                                       
        -- Eric Jon Sundstrom 2008-2014            
        -- Paul Horn 2010-2015                     
        -- Yuezhi Mao 2012-                        
        -- Dmitri Zuev 2014                        
        -- Alec White 2015-                        
        -- David Stuck 2015                        
        -- Shaama M.S. 2015                        
        -- Shane Yost 2015-                         
        -- Joonho Lee 2016-                        
        -- David Small 2016-                       
        -- Daniel Levine 2016-                     
        -- Susi Lehtola 2017-                      
        -- Hugh Burton 2017-                       
 ==================================================
 Hartree-Fock
Finding J and K together
 Job number = 22, Threshold = 1.00E-08
Integral type ranges set in mkLRange.C for JobNum: 22  <1-21|1-21>
 MakeJK  time:  CPU       1.91 s  wall       2.17 s
 HF Exchange:              -26.01827677394955
 One-Electron:             -493.72482399237191
 Total Coulomb:            207.35965875472843
 Nuclear repulsion:        119.36212642078750
 A restricted SCF calculation will be
 performed using DIIS
 SCF converges when DIIS error is below 1.0e-05
 ---------------------------------------
  Cycle       Energy         DIIS error
 ---------------------------------------
Finding J and K together
 Job number = 22, Threshold = 1.00E-08
Integral type ranges set in mkLRange.C for JobNum: 22  <1-21|1-21>
 MakeJK  time:  CPU       5.98 s  wall       6.63 s
 HF Exchange:              -25.97514079374156
 One-Electron:             -497.15749558303298
 Total Coulomb:            211.86047482888910
 Nuclear repulsion:        119.36212642078750
    1    -193.0213155908      5.52e-02  
Finding J and K together
 Job number = 22, Threshold = 1.00E-08
Integral type ranges set in mkLRange.C for JobNum: 22  <1-21|1-21>
 MakeJK  time:  CPU       5.92 s  wall       6.28 s
 HF Exchange:              -25.78877581558168
 One-Electron:             -496.39365494271033
 Total Coulomb:            210.85290225597308
 Nuclear repulsion:        119.36212642078750
    2    -191.9100351271      6.85e-03  
Finding J and K together
 Job number = 22, Threshold = 1.00E-08
Integral type ranges set in mkLRange.C for JobNum: 22  <1-21|1-21>
 MakeJK  time:  CPU       4.46 s  wall       4.57 s
 HF Exchange:              -25.92469216479371
 One-Electron:             -496.82819637136060
 Total Coulomb:            211.38056759023334
 Nuclear repulsion:        119.36212642078750
    3    -191.9674020815      5.41e-03  
Finding J and K together
 Job number = 22, Threshold = 1.00E-08
Integral type ranges set in mkLRange.C for JobNum: 22  <1-21|1-21>
 MakeJK  time:  CPU       5.63 s  wall       5.76 s
 HF Exchange:              -25.93228989402027
 One-Electron:             -496.81473213479075
 Total Coulomb:            211.37284570306770
 Nuclear repulsion:        119.36212642078750
    4    -192.0101945251      6.84e-04  
Finding J and K together
 Job number = 22, Threshold = 1.00E-08
Integral type ranges set in mkLRange.C for JobNum: 22  <1-21|1-21>
 MakeJK  time:  CPU       5.87 s  wall       6.02 s
 HF Exchange:              -25.93509425684256
 One-Electron:             -496.81611445016694
 Total Coulomb:            211.37683329256217
 Nuclear repulsion:        119.36212642078750
    5    -192.0120499050      2.06e-04  
Finding J and K together
 Job number = 22, Threshold = 1.00E-08
Integral type ranges set in mkLRange.C for JobNum: 22  <1-21|1-21>
 MakeJK  time:  CPU       4.92 s  wall       4.93 s
 HF Exchange:              -25.93558661893044
 One-Electron:             -496.81253419430169
 Total Coulomb:            211.37370562012688
 Nuclear repulsion:        119.36212642078750
    6    -192.0122489937      8.11e-05  
Finding J and K together
 Job number = 22, Threshold = 1.00E-08
Integral type ranges set in mkLRange.C for JobNum: 22  <1-21|1-21>
 MakeJK  time:  CPU       5.99 s  wall       6.00 s
 HF Exchange:              -25.93588412356742
 One-Electron:             -496.81539205616997
 Total Coulomb:            211.37685468579755
 Nuclear repulsion:        119.36212642078750
    7    -192.0122887723      3.48e-05  
Finding J and K together
 Job number = 22, Threshold = 1.00E-08
Integral type ranges set in mkLRange.C for JobNum: 22  <1-21|1-21>
 MakeJK  time:  CPU       5.97 s  wall       5.98 s
 HF Exchange:              -25.93574069531744
 One-Electron:             -496.81403122085550
 Total Coulomb:            211.37534982011132
 Nuclear repulsion:        119.36212642078750
    8    -192.0122950732      1.01e-05  
    9    -192.0122956753      1.86e-06  Convergence criterion met
 ---------------------------------------
 SCF time:   CPU 47.27s  wall 49.00s 
 Total energy in the final basis set =     -192.0122956753
 HF Exchange:              -25.93574069531744
 One-Electron:             -496.81403122085550
 Total Coulomb:            211.37534982011132
 Nuclear repulsion:        119.36212642078750
Wall  1 = 50
Clock 1 = 47.35106277465820
 ==================================================
                  Done GEN_SCFMAN                  
 ==================================================

Symmetry turned off temporarily

 --------------------------------------------------------------

                    Orbital Energies (a.u.)
 --------------------------------------------------------------

 Alpha MOs
 -- Occupied --
-20.543 -11.338 -11.236 -11.236  -1.385  -1.041  -0.974  -0.744
 -0.644  -0.639  -0.621  -0.569  -0.568  -0.537  -0.480  -0.413
 -- Virtual --
  0.037   0.054   0.066   0.067   0.087   0.094   0.112   0.118
  0.141   0.149   0.167   0.172   0.178   0.185   0.191   0.206
  0.207   0.211   0.220   0.281   0.311   0.315   0.321   0.361
  0.385   0.388   0.412   0.417   0.445   0.446   0.530   0.540
  0.559   0.605   0.613   0.632   0.713   0.751   0.762   0.837
  0.856   0.859   0.876   0.890   0.897   0.941   0.950   1.012
  1.057   1.131   1.138   1.353   1.358   1.450   1.470   1.539
  1.539   1.629   1.702   1.708   1.725   1.754   1.802   1.803
  1.808   1.830   1.850   1.963   2.007   2.057   2.129   2.132
  2.166   2.191   2.277   2.406   2.451   2.471   2.542   2.632
  2.754   2.789   2.832   2.845   2.846   2.864   2.882   2.892
  2.924   2.932   3.042   3.170   3.206   3.216   3.288   3.362
  3.473   3.582   3.749   3.911   4.070   4.176   4.176   4.222
  4.271   4.566   4.694   5.622   5.776   6.285  24.952  25.103
 25.145  51.687
 --------------------------------------------------------------

          Ground-State Mulliken Net Atomic Charges

     Atom                 Charge (a.u.)
  ----------------------------------------
      1 O                    -0.353487
      2 C                     0.427976
      3 C                    -0.514013
      4 C                    -0.515110
      5 H                     0.173238
      6 H                     0.173245
      7 H                     0.130657
      8 H                     0.130539
      9 H                     0.173480
     10 H                     0.173475
  ----------------------------------------
  Sum of atomic charges =     0.000000

 -----------------------------------------------------------------
                    Cartesian Multipole Moments
 -----------------------------------------------------------------
    Charge (ESU x 10^10)
                 0.0000
    Dipole Moment (Debye)
         X      -0.0058      Y       3.4159      Z      -0.0000
       Tot       3.4159
    Quadrupole Moments (Debye-Ang)
        XX     -23.2029     XY       0.0078     YY     -30.1985
        XZ      -0.0000     YZ      -0.0001     ZZ     -24.2267
    Octopole Moments (Debye-Ang^2)
       XXX      -0.0344    XXY      -1.0736    XYY      -0.0002
       YYY       6.0236    XXZ      -0.0000    XYZ      -0.0001
       YYZ       0.0006    XZZ       0.0089    YZZ      -1.7848
       ZZZ      -0.0009
    Hexadecapole Moments (Debye-Ang^3)
      XXXX    -201.4946   XXXY       0.0215   XXYY     -61.0424
      XYYY       0.0016   YYYY    -148.0500   XXXZ      -0.0001
      XXYZ      -0.0014   XYYZ       0.0000   YYYZ       0.0016
      XXZZ     -35.5572   XYZZ       0.0082   YYZZ     -31.4807
      XZZZ      -0.0002   YZZZ      -0.0007   ZZZZ     -36.5577
 -----------------------------------------------------------------
 Mayer SCF Bond Order, atomic valence on the diagonal:

            1           2           3           4           5           6
    1   1.8317474   2.0431925  -0.0856501  -0.0850918  -0.0114586  -0.0114569
    2   2.0431925   3.4808683   0.7949562   0.7946431  -0.0049209  -0.0049025
    3  -0.0856501   0.7949562   3.7277781   0.0513830   0.9745041   0.9744755
    4  -0.0850918   0.7946431   0.0513830   3.7280618   0.0009267   0.0009286
    5  -0.0114586  -0.0049209   0.9745041   0.0009267   0.9191661  -0.0241706
    6  -0.0114569  -0.0049025   0.9744755   0.0009286  -0.0241706   0.9191578
    7   0.0025506  -0.0658352   1.0199449  -0.0038403  -0.0173655  -0.0173692
    8   0.0025422  -0.0660488  -0.0036368   1.0202762   0.0021572   0.0021599
    9  -0.0114396  -0.0051017   0.0009007   0.9744087  -0.0000607  -0.0004463
   10  -0.0114410  -0.0051144   0.0009005   0.9744277  -0.0004456  -0.0000607
            7           8           9          10
    1   0.0025506   0.0025422  -0.0114396  -0.0114410
    2  -0.0658352  -0.0660488  -0.0051017  -0.0051144
    3   1.0199449  -0.0036368   0.0009007   0.0009005
    4  -0.0038403   1.0202762   0.9744087   0.9744277
    5  -0.0173655   0.0021572  -0.0000607  -0.0004456
    6  -0.0173692   0.0021599  -0.0004463  -0.0000607
    7   0.9100583  -0.0123496   0.0021624   0.0021602
    8  -0.0123496   0.9105734  -0.0172654  -0.0172616
    9   0.0021624  -0.0172654   0.9188544  -0.0243037
   10   0.0021602  -0.0172616  -0.0243037   0.9188614


 JobOver = TRUE
Archival summary:
1\1\qciep03\SP\HF\BasisUnspecified\136\jcartus\ThuFeb112:06:582018ThuFeb112:06:582018\0\\#,HF,BasisUnspecified,\\0,1\C\O,1,1.21753\C,1,1.51385,2,120.515\H,3,1.08551,1,113.207,2,179.99,0\H,3,1.08867,1,108.648,2,57.9969,0\H,3,1.08867,1,108.648,2,-58.0183,0\C,1,1.5143,2,120.407,3,-179.999,0\H,7,1.08544,1,113.297,2,-179.987,0\H,7,1.08858,1,108.609,2,58.1282,0\H,7,1.08859,1,108.607,2,-58.1021,0\\HF=-192.012296\\@

 Total job time:  49.52s(wall), 47.74s(cpu) 
 Thu Feb  1 12:06:58 2018

        *************************************************************
        *                                                           *
        *  Thank you very much for using Q-Chem.  Have a nice day.  *
        *                                                           *
        *************************************************************


*** MISSION COMPLETED -- STARFLEET OUT ***

0 sent ACK to 0 
now end server 0 ... 
