Process 0 of 1 is on qciep03 - thread support 0
initial socket setup ...start
initial socket setup ...done 
now start server 0 ... 
qciep03.tugraz.at 127.0.1
Q-Chem Developer Version! Running on 127.0.1.*
                  Welcome to Q-Chem
     A Quantum Leap Into The Future Of Chemistry


 Q-Chem 5.0, Q-Chem, Inc., Pleasanton, CA (2017)

 Yihan Shao,  Zhengting Gan,  E. Epifanovsky,  A. T. B. Gilbert,  M. Wormit,  
 J. Kussmann,  A. W. Lange,  A. Behn,  Jia Deng,  Xintian Feng,  D. Ghosh,  
 M. Goldey,  P. R. Horn,  L. D. Jacobson,  I. Kaliman,  T. Kus,  A. Landau,  
 Jie Liu,  E. I. Proynov,  R. M. Richard,  R. P. Steele,  E. J. Sundstrom,  
 H. L. Woodcock III,  P. M. Zimmerman,  D. Zuev,  B. Albrecht,  E. Alguire,  
 S. A. Baeppler,  D. Barton,  Z. Benda,  Y. A. Bernard,  E. J. Berquist,  
 K. B. Bravaya,  H. Burton,  D. Casanova,  Chun-Min Chang,  Yunqing Chen,  
 A. Chien,  K. D. Closser,  M. P. Coons,  S. Dasgupta,  A. L. Dempwolff,  
 M. Diedenhofen,  Hainam Do,  R. G. Edgar,  Po-Tung Fang,  S. Fatehi,  
 Qingguo Feng,  J. Fosso-Tande,  Qinghui Ge,  A. Ghysels,  G. Gidofalvi,  
 J. Gomes,  J. Gonthier,  A. Gunina,  M. W. D. Hanson-Heine,  
 P. H. P. Harbach,  A. W. Hauser,  J. E. Herr,  E. G. Hohenstein,  
 Z. C. Holden,  Kerwin Hui,  T.-C. Jagau,  Hyunjun Ji,  B. Kaduk,  
 K. Khistyaev,  Jaehoon Kim,  P. Klunzinger,  K. Koh,  D. Kosenkov,  
 L. Koulias,  T. Kowalczyk,  C. M. Krauter,  A. Kunitsa,  Ka Un Lao,  
 A. Laurent,  K. V. Lawler,  Joonho Lee,  D. Lefrancois,  S. Lehtola,  
 D. S. Levine,  Yi-Pei Li,  You-Sheng Lin,  Fenglai Liu,  E. Livshits,  
 A. Luenser,  P. Manohar,  E. Mansoor,  S. F. Manzer,  Shan-Ping Mao,  
 Yuezhi Mao,  N. Mardirossian,  A. V. Marenich,  T. Markovich,  
 L. A. Martinez-Martinez,  S. A. Maurer,  N. J. Mayhall,  S. C. McKenzie,  
 J.-M. Mewes,  A. F. Morrison,  J. W. Mullinax,  K. Nanda,  
 T. S. Nguyen-Beck,  R. Olivares-Amaya,  J. A. Parkhill,  T. M. Perrine,  
 F. Plasser,  S. Prager,  A. Prociuk,  E. Ramos,  D. R. Rehn,  F. Rob,  
 M. Schneider,  N. Sergueev,  S. M. Sharada,  S. Sharma,  D. W. Small,  
 T. Stauch,  T. Stein,  Yu-Chuan Su,  A. J. W. Thom,  A. Tkatchenko,  
 T. Tsuchimochi,  L. Vogt,  O. Vydrov,  M. A. Watson,  J. Wenzel,  
 M. de Wergifosse,  T. A. Wesolowski,  A. White,  J. Witte,  A. Yamada,  
 Jun Yang,  K. Yao,  S. Yeganeh,  S. R. Yost,  Zhi-Qiang You,  A. Zech,  
 Igor Ying Zhang,  Xing Zhang,  Yan Zhao,  Ying Zhu,  B. R. Brooks,  
 G. K. L. Chan,  C. J. Cramer,  M. S. Gordon,  W. J. Hehre,  A. Klamt,  
 M. W. Schmidt,  C. D. Sherrill,  D. G. Truhlar,  A. Aspuru-Guzik,  R. Baer,  
 A. T. Bell,  N. A. Besley,  Jeng-Da Chai,  R. A. DiStasio Jr.,  A. Dreuw,  
 B. D. Dunietz,  T. R. Furlani,  Chao-Ping Hsu,  Yousung Jung,  Jing Kong,  
 D. S. Lambrecht,  WanZhen Liang,  C. Ochsenfeld,  V. A. Rassolov,  
 L. V. Slipchenko,  J. E. Subotnik,  T. Van Voorhis,  J. M. Herbert,  
 A. I. Krylov,  P. M. W. Gill,  M. Head-Gordon

 Contributors to earlier versions of Q-Chem not listed above: 
 R. D. Adamson,  B. Austin,  J. Baker,  G. J. O. Beran,  K. Brandhorst,  
 S. T. Brown,  E. F. C. Byrd,  A. K. Chakraborty,  C.-L. Cheng,  
 Siu Hung Chien,  D. M. Chipman,  D. L. Crittenden,  H. Dachsel,  
 R. J. Doerksen,  A. D. Dutoi,  L. Fusti-Molnar,  W. A. Goddard III,  
 A. Golubeva-Zadorozhnaya,  S. R. Gwaltney,  G. Hawkins,  A. Heyden,  
 S. Hirata,  G. Kedziora,  F. J. Keil,  C. Kelley,  Jihan Kim,  R. A. King,  
 R. Z. Khaliullin,  P. P. Korambath,  W. Kurlancheek,  A. M. Lee,  M. S. Lee,  
 S. V. Levchenko,  Ching Yeh Lin,  D. Liotard,  R. C. Lochan,  I. Lotan,  
 P. E. Maslen,  N. Nair,  D. P. O'Neill,  D. Neuhauser,  E. Neuscamman,  
 C. M. Oana,  R. Olson,  B. Peters,  R. Peverati,  P. A. Pieniazek,  
 Y. M. Rhee,  J. Ritchie,  M. A. Rohrdanz,  E. Rosta,  N. J. Russ,  
 H. F. Schaefer III,  N. E. Schultz,  N. Shenvi,  A. C. Simmonett,  A. Sodt,  
 D. Stuck,  K. S. Thanthiriwatte,  V. Vanovschi,  Tao Wang,  A. Warshel,  
 C. F. Williams,  Q. Wu,  X. Xu,  W. Zhang

 Please cite Q-Chem as follows:
 Y. Shao et al., Mol. Phys. 113, 184-215 (2015)
 DOI: 10.1080/00268976.2014.952696

 Q-Chem 5.0.2 for Intel X86 EM64T Linux

 Parts of Q-Chem use Armadillo 5.200.1 (Boston Tea Smuggler).
 http://arma.sourceforge.net/

 Q-Chem begins on Thu Feb  1 12:23:05 2018  


Host: 0

     Scratch files written to /home/jcartus/scratch/08_trichloromethane-methane.dir//
 Using version located at /usr/local/qchem/bin/qchem

 Parallel job on  1  processors

Total Memory Limit in MB = 2000
Mega-Array Size in MB = 192

Checking the input file for inconsistencies... 	...done.
Finally everything over in PARseQInput

--------------------------------------------------------------
User input:
--------------------------------------------------------------
$rem
SCF_PRINT                     1
BASIS                         6-311++g**
SCF_SAVE_MATRICES             1
SCF_CONVERGENCE               5
SCF_FINAL_PRINT               1
METHOD                        hf
JOBTYPE                       sp
$end

$molecule
0 1
C    -2.8509e-05    -0.000461929    2.158149022
Cl    -1.454063734    0.838777303    1.616235012
Cl    1.454144531    0.838659727    1.616208515
Cl    -8.74e-05    -1.679795034    1.617802938
H    5.696e-06    0.000267325    3.239305949
C    -2.3095e-05    0.000461919    -1.900304972
H    2.4593e-05    -0.001407092    -2.986061026
H    -0.885500277    -0.510272086    -1.535173451
H    0.885623343    -0.510121803    -1.535137023
H    -9.3238e-05    1.023638315    -1.537792773
$end


--------------------------------------------------------------
 ----------------------------------------------------------------
             Standard Nuclear Orientation (Angstroms)
    I     Atom           X                Y                Z
 ----------------------------------------------------------------
    1      C       0.9868766097    -0.0003163179    -0.0019051467
    2      Cl      0.4434235368     1.2915236440    -1.0733620934
    3      Cl      0.4433570057    -1.5750041633    -0.5827566995
    4      Cl      0.4496532986     0.2831491357     1.6543472562
    5      H       2.0680303124    -0.0008267504    -0.0045967124
    6      C      -3.0715720888     0.0008503442     0.0046121677
    7      H      -4.1573227928     0.0014737891     0.0084493895
    8      H      -2.7054795010     0.9596621051     0.3580188961
    9      H      -2.7054678667    -0.7861152010     0.6565829574
   10      H      -2.7109625746    -0.1717645787    -1.0045805311
 ----------------------------------------------------------------
 Molecular Point Group                 C1    NOp =  1
 Largest Abelian Subgroup              C1    NOp =  1
 Nuclear Repulsion Energy =   355.4407308529 hartrees
 There are       34 alpha and       34 beta electrons
 Requested basis set is 6-311++G(d,p)
 There are 76 shells and 169 basis functions

 Total QAlloc Memory Limit   2000 MB
 Mega-Array Size       188 MB
 MEM_STATIC part       192 MB

finished with qalloc call

                       Distance Matrix (Angstroms)
             C (  1)   Cl(  2)   Cl(  3)   Cl(  4)   H (  5)   C (  6)
   Cl(  2)  1.764146
   Cl(  3)  1.764212  2.908208
   Cl(  4)  1.764124  2.908136  2.908162
   H (  5)  1.081157  2.334904  2.334923  2.334926
   C (  6)  4.058454  3.896545  3.896543  3.898762  5.139611
   H (  7)  5.144210  4.899124  4.899088  4.900260  6.225367  1.085758
   H (  8)  3.832049  3.474849  4.150273  3.477499  4.882666  1.085468
   H (  9)  3.832035  4.150278  3.474681  3.477592  4.882635  1.085547
   H ( 10)  3.835201  3.477944  3.478038  4.155278  4.885485  1.085498
             H (  7)   H (  8)   H (  9)
   H (  8)  1.774309
   H (  9)  1.774333  1.771124
   H ( 10)  1.774316  1.771111  1.771136

 Job number = 2, Threshold = 1.00E-08
Integral type ranges set in mkLRange.C for JobNum: 2  <1-21|1-21>
Symmetry turned off temporarily
 Using the largest function pair in Schwarz integrals
Total number of integrals generated =          144078
Symmetry turned back on
 A cutoff of  1.0D-08 yielded   2325 shell pairs
 There are     11953 function pairs (     12666 Cartesian)
 Job number = 11, Threshold = 1.00E-08
Integral type ranges set in mkLRange.C for JobNum: 11  <1-21|22-22>
Total number of integrals generated =          126390
 Smallest overlap matrix eigenvalue = 3.66E-05

 Q-Chem warning in module /usr/local/qchem/stvman/mkSTV.C, line 295:

 Overlap eigenvalue is smaller than square root of threshold

 Multipole matrices computed through 2nd order

 Scale SEOQF with 1.000000e-01/1.000000e-01/1.000000e-01

 Standard Electronic Orientation quadrupole field applied
 Nucleus-field energy     =     0.0000000015 hartrees
 ENuRep (before)= 355.4407308529
 ENucField = 0.0000000015
 ENuRep (after) = 355.4407308544
 Guess from superposition of atomic densities
 Warning:  Energy on first SCF cycle will be non-variational
 SAD guess density has 68.000000 electrons

 ==================================================
    GEN_SCFMAN: A general SCF calculation manager  
                                                   
    Authors:                                       
        -- Eric Jon Sundstrom 2008-2014            
        -- Paul Horn 2010-2015                     
        -- Yuezhi Mao 2012-                        
        -- Dmitri Zuev 2014                        
        -- Alec White 2015-                        
        -- David Stuck 2015                        
        -- Shaama M.S. 2015                        
        -- Shane Yost 2015-                         
        -- Joonho Lee 2016-                        
        -- David Small 2016-                       
        -- Daniel Levine 2016-                     
        -- Susi Lehtola 2017-                      
        -- Hugh Burton 2017-                       
 ==================================================
 Hartree-Fock
Finding J and K together
 Job number = 22, Threshold = 1.00E-08
Integral type ranges set in mkLRange.C for JobNum: 22  <1-21|1-21>
 MakeJK  time:  CPU       5.17 s  wall       5.75 s
 HF Exchange:              -94.79873914701680
 One-Electron:             -2716.73310008959925
 Total Coulomb:            998.10578070304553
 Nuclear repulsion:        355.44073085441261
 A restricted SCF calculation will be
 performed using DIIS
 SCF converges when DIIS error is below 1.0e-05
 ---------------------------------------
  Cycle       Energy         DIIS error
 ---------------------------------------
Finding J and K together
 Job number = 22, Threshold = 1.00E-08
Integral type ranges set in mkLRange.C for JobNum: 22  <1-21|1-21>
 MakeJK  time:  CPU      13.99 s  wall      14.52 s
 HF Exchange:              -94.73351074432739
 One-Electron:             -2716.61257185545264
 Total Coulomb:            998.87166986855880
 Nuclear repulsion:        355.44073085441261
    1   -1457.9853276792      3.88e-02  
Finding J and K together
 Job number = 22, Threshold = 1.00E-08
Integral type ranges set in mkLRange.C for JobNum: 22  <1-21|1-21>
 MakeJK  time:  CPU      13.64 s  wall      13.76 s
 HF Exchange:              -94.78699973835832
 One-Electron:             -2719.83799196472319
 Total Coulomb:            1002.08093154770609
 Nuclear repulsion:        355.44073085441261
    2   -1457.0336818768      5.56e-03  
Finding J and K together
 Job number = 22, Threshold = 1.00E-08
Integral type ranges set in mkLRange.C for JobNum: 22  <1-21|1-21>
 MakeJK  time:  CPU      14.04 s  wall      14.15 s
 HF Exchange:              -94.80391280910460
 One-Electron:             -2718.59614566609707
 Total Coulomb:            1000.79192035630092
 Nuclear repulsion:        355.44073085441261
    3   -1457.1033293010      4.45e-03  
Finding J and K together
 Job number = 22, Threshold = 1.00E-08
Integral type ranges set in mkLRange.C for JobNum: 22  <1-21|1-21>
 MakeJK  time:  CPU      13.85 s  wall      13.87 s
 HF Exchange:              -94.82251042098208
 One-Electron:             -2718.64311849660362
 Total Coulomb:            1000.85575450004148
 Nuclear repulsion:        355.44073085441261
    4   -1457.1674072645      4.33e-04  
Finding J and K together
 Job number = 22, Threshold = 1.00E-08
Integral type ranges set in mkLRange.C for JobNum: 22  <1-21|1-21>
 MakeJK  time:  CPU      14.25 s  wall      14.27 s
 HF Exchange:              -94.82315036994896
 One-Electron:             -2718.62461542355959
 Total Coulomb:            1000.83777107533103
 Nuclear repulsion:        355.44073085441261
    5   -1457.1691435631      1.16e-04  
Finding J and K together
 Job number = 22, Threshold = 1.00E-08
Integral type ranges set in mkLRange.C for JobNum: 22  <1-21|1-21>
 MakeJK  time:  CPU      14.14 s  wall      14.16 s
 HF Exchange:              -94.82458240063843
 One-Electron:             -2718.63448899072910
 Total Coulomb:            1000.84906225662007
 Nuclear repulsion:        355.44073085441261
    6   -1457.1692638638      3.77e-05  
Finding J and K together
 Job number = 22, Threshold = 1.00E-08
Integral type ranges set in mkLRange.C for JobNum: 22  <1-21|1-21>
 MakeJK  time:  CPU      11.56 s  wall      11.58 s
 HF Exchange:              -94.82437304060959
 One-Electron:             -2718.63045709750349
 Total Coulomb:            1000.84482009534202
 Nuclear repulsion:        355.44073085441261
    7   -1457.1692782803      1.02e-05  
    8   -1457.1692791884      2.28e-06  Convergence criterion met
 ---------------------------------------
 SCF time:   CPU 101.80s  wall 104.00s 
 Total energy in the final basis set =    -1457.1692791884
 HF Exchange:              -94.82437304060959
 One-Electron:             -2718.63045709750349
 Total Coulomb:            1000.84482009534202
 Nuclear repulsion:        355.44073085441261
Wall  1 = 104
Clock 1 = 101.95105743408203
 ==================================================
                  Done GEN_SCFMAN                  
 ==================================================

Symmetry turned off temporarily

 --------------------------------------------------------------

                    Orbital Energies (a.u.)
 --------------------------------------------------------------

 Alpha MOs
 -- Occupied --
*******-104.866-104.866 -11.438 -11.199 -10.593 -10.593 -10.593
 -8.061  -8.061  -8.061  -8.058  -8.058  -8.058  -8.058  -8.058
 -8.058  -1.250  -1.119  -1.119  -0.938  -0.880  -0.688  -0.631
 -0.631  -0.541  -0.540  -0.540  -0.505  -0.505  -0.471  -0.471
 -0.467  -0.454
 -- Virtual --
  0.042   0.050   0.077   0.080   0.080   0.103   0.103   0.104
  0.130   0.130   0.144   0.157   0.157   0.169   0.169   0.180
  0.186   0.186   0.186   0.197   0.200   0.210   0.226   0.226
  0.256   0.266   0.266   0.284   0.333   0.333   0.346   0.404
  0.414   0.528   0.528   0.552   0.554   0.554   0.597   0.597
  0.613   0.623   0.623   0.628   0.666   0.685   0.685   0.725
  0.839   0.888   0.890   0.890   0.924   0.934   0.934   1.064
  1.110   1.110   1.115   1.116   1.126   1.126   1.138   1.138
  1.164   1.164   1.231   1.231   1.256   1.256   1.282   1.377
  1.377   1.421   1.540   1.663   1.663   1.735   1.737   1.737
  1.826   1.826   1.872   1.940   2.090   2.090   2.174   2.174
  2.217   2.217   2.244   2.605   2.605   2.606   2.648   2.648
  2.675   2.695   2.695   2.717   2.746   2.746   2.799   2.821
  2.821   2.858   2.953   2.955   2.955   2.990   3.055   3.320
  3.454   3.454   3.753   4.221   4.221   4.231  10.427  10.427
 10.451  24.636  25.227  26.680  26.680  26.703  26.801  26.801
 26.971  27.082  27.083  27.602 219.283 219.283 219.324
 --------------------------------------------------------------

          Ground-State Mulliken Net Atomic Charges

     Atom                 Charge (a.u.)
  ----------------------------------------
      1 C                     0.716564
      2 Cl                   -0.315049
      3 Cl                   -0.315085
      4 Cl                   -0.315159
      5 H                     0.285863
      6 C                    -0.521570
      7 H                     0.115340
      8 H                     0.116345
      9 H                     0.116336
     10 H                     0.116415
  ----------------------------------------
  Sum of atomic charges =     0.000000

 -----------------------------------------------------------------
                    Cartesian Multipole Moments
 -----------------------------------------------------------------
    Charge (ESU x 10^10)
                 0.0000
    Dipole Moment (Debye)
         X       1.3269      Y      -0.0003      Z      -0.0031
       Tot       1.3269
    Quadrupole Moments (Debye-Ang)
        XX     -49.8282     XY      -0.0015     YY     -53.7481
        XZ      -0.0091     YZ      -0.0001     ZZ     -53.7476
    Octopole Moments (Debye-Ang^2)
       XXX      15.5330    XXY      -0.0059    XYY      -0.5215
       YYY      -1.4534    XXZ      -0.0337    XYZ       0.0020
       YYZ      -2.6084    XZZ      -0.5077    YZZ       1.4568
       ZZZ       2.6200
    Hexadecapole Moments (Debye-Ang^3)
      XXXX    -613.3767   XXXY      -0.0124   XXYY    -177.2456
      XYYY       0.5690   YYYY    -372.6183   XXXZ      -0.0768
      XXYZ      -0.0003   XYYZ       1.0209   YYYZ      -0.0068
      XXZZ    -177.2470   XYZZ      -0.5389   YYZZ    -124.2122
      XZZZ      -0.8535   YZZZ       0.0100   ZZZZ    -372.5718
 -----------------------------------------------------------------
 Mayer SCF Bond Order, atomic valence on the diagonal:

            1           2           3           4           5           6
    1   1.5411824   0.2103757   0.2100905   0.2105402   1.1099002  -0.1385574
    2   0.2103757   1.2196064   0.5082253   0.5082829  -0.0971626   0.0432198
    3   0.2100905   0.5082253   1.2193323   0.5082899  -0.0971561   0.0432215
    4   0.2105402   0.5082829   0.5082899   1.2198328  -0.0971052   0.0431198
    5   1.1099002  -0.0971626  -0.0971561  -0.0971052   0.8181222  -0.0053437
    6  -0.1385574   0.0432198   0.0432215   0.0431198  -0.0053437   3.8819939
    7  -0.0075373   0.0040165   0.0040163   0.0039996   0.0004639   0.9828135
    8  -0.0178626   0.0214250  -0.0001332   0.0214061   0.0015140   0.9711547
    9  -0.0178630  -0.0001312   0.0214274   0.0214005   0.0015139   0.9711696
   10  -0.0179037   0.0213550   0.0213507  -0.0001010   0.0014977   0.9711960
            7           8           9          10
    1  -0.0075373  -0.0178626  -0.0178630  -0.0179037
    2   0.0040165   0.0214250  -0.0001312   0.0213550
    3   0.0040163  -0.0001332   0.0214274   0.0213507
    4   0.0039996   0.0214061   0.0214005  -0.0001010
    5   0.0004639   0.0015140   0.0015139   0.0014977
    6   0.9828135   0.9711547   0.9711696   0.9711960
    7   0.9524199  -0.0117844  -0.0117856  -0.0117826
    8  -0.0117844   0.9421730  -0.0217711  -0.0217755
    9  -0.0117856  -0.0217711   0.9421835  -0.0217771
   10  -0.0117826  -0.0217755  -0.0217771   0.9420595


 JobOver = TRUE
Archival summary:
1\1\qciep03\SP\HF\BasisUnspecified\l325\jcartus\ThuFeb112:24:492018ThuFeb112:24:492018\0\\#,HF,BasisUnspecified,\\0,1\Cl\C,1,1.76415\H,2,1.08116,1,107.872\Cl,2,1.76412,1,111.023,3,117.997,0\Cl,2,1.76421,1,111.023,3,-117.989,0\H,5,3.47468,2,87.6563,1,-76.7275,0\C,6,1.08555,5,104.833,2,69.7085,0\H,7,1.08547,6,109.334,5,-85.3645,0\H,7,1.0855,6,109.333,5,34.3033,0\H,7,1.08576,6,109.606,5,154.468,0\\HF=-1457.16928\\@

 Total job time:  104.32s(wall), 102.56s(cpu) 
 Thu Feb  1 12:24:49 2018

        *************************************************************
        *                                                           *
        *  Thank you very much for using Q-Chem.  Have a nice day.  *
        *                                                           *
        *************************************************************


*** MISSION COMPLETED -- STARFLEET OUT ***

0 sent ACK to 0 
now end server 0 ... 
