Process 0 of 1 is on qciep03 - thread support 0
initial socket setup ...start
initial socket setup ...done 
now start server 0 ... 
qciep03.tugraz.at 127.0.1
Q-Chem Developer Version! Running on 127.0.1.*
                  Welcome to Q-Chem
     A Quantum Leap Into The Future Of Chemistry


 Q-Chem 5.0, Q-Chem, Inc., Pleasanton, CA (2017)

 Yihan Shao,  Zhengting Gan,  E. Epifanovsky,  A. T. B. Gilbert,  M. Wormit,  
 J. Kussmann,  A. W. Lange,  A. Behn,  Jia Deng,  Xintian Feng,  D. Ghosh,  
 M. Goldey,  P. R. Horn,  L. D. Jacobson,  I. Kaliman,  T. Kus,  A. Landau,  
 Jie Liu,  E. I. Proynov,  R. M. Richard,  R. P. Steele,  E. J. Sundstrom,  
 H. L. Woodcock III,  P. M. Zimmerman,  D. Zuev,  B. Albrecht,  E. Alguire,  
 S. A. Baeppler,  D. Barton,  Z. Benda,  Y. A. Bernard,  E. J. Berquist,  
 K. B. Bravaya,  H. Burton,  D. Casanova,  Chun-Min Chang,  Yunqing Chen,  
 A. Chien,  K. D. Closser,  M. P. Coons,  S. Dasgupta,  A. L. Dempwolff,  
 M. Diedenhofen,  Hainam Do,  R. G. Edgar,  Po-Tung Fang,  S. Fatehi,  
 Qingguo Feng,  J. Fosso-Tande,  Qinghui Ge,  A. Ghysels,  G. Gidofalvi,  
 J. Gomes,  J. Gonthier,  A. Gunina,  M. W. D. Hanson-Heine,  
 P. H. P. Harbach,  A. W. Hauser,  J. E. Herr,  E. G. Hohenstein,  
 Z. C. Holden,  Kerwin Hui,  T.-C. Jagau,  Hyunjun Ji,  B. Kaduk,  
 K. Khistyaev,  Jaehoon Kim,  P. Klunzinger,  K. Koh,  D. Kosenkov,  
 L. Koulias,  T. Kowalczyk,  C. M. Krauter,  A. Kunitsa,  Ka Un Lao,  
 A. Laurent,  K. V. Lawler,  Joonho Lee,  D. Lefrancois,  S. Lehtola,  
 D. S. Levine,  Yi-Pei Li,  You-Sheng Lin,  Fenglai Liu,  E. Livshits,  
 A. Luenser,  P. Manohar,  E. Mansoor,  S. F. Manzer,  Shan-Ping Mao,  
 Yuezhi Mao,  N. Mardirossian,  A. V. Marenich,  T. Markovich,  
 L. A. Martinez-Martinez,  S. A. Maurer,  N. J. Mayhall,  S. C. McKenzie,  
 J.-M. Mewes,  A. F. Morrison,  J. W. Mullinax,  K. Nanda,  
 T. S. Nguyen-Beck,  R. Olivares-Amaya,  J. A. Parkhill,  T. M. Perrine,  
 F. Plasser,  S. Prager,  A. Prociuk,  E. Ramos,  D. R. Rehn,  F. Rob,  
 M. Schneider,  N. Sergueev,  S. M. Sharada,  S. Sharma,  D. W. Small,  
 T. Stauch,  T. Stein,  Yu-Chuan Su,  A. J. W. Thom,  A. Tkatchenko,  
 T. Tsuchimochi,  L. Vogt,  O. Vydrov,  M. A. Watson,  J. Wenzel,  
 M. de Wergifosse,  T. A. Wesolowski,  A. White,  J. Witte,  A. Yamada,  
 Jun Yang,  K. Yao,  S. Yeganeh,  S. R. Yost,  Zhi-Qiang You,  A. Zech,  
 Igor Ying Zhang,  Xing Zhang,  Yan Zhao,  Ying Zhu,  B. R. Brooks,  
 G. K. L. Chan,  C. J. Cramer,  M. S. Gordon,  W. J. Hehre,  A. Klamt,  
 M. W. Schmidt,  C. D. Sherrill,  D. G. Truhlar,  A. Aspuru-Guzik,  R. Baer,  
 A. T. Bell,  N. A. Besley,  Jeng-Da Chai,  R. A. DiStasio Jr.,  A. Dreuw,  
 B. D. Dunietz,  T. R. Furlani,  Chao-Ping Hsu,  Yousung Jung,  Jing Kong,  
 D. S. Lambrecht,  WanZhen Liang,  C. Ochsenfeld,  V. A. Rassolov,  
 L. V. Slipchenko,  J. E. Subotnik,  T. Van Voorhis,  J. M. Herbert,  
 A. I. Krylov,  P. M. W. Gill,  M. Head-Gordon

 Contributors to earlier versions of Q-Chem not listed above: 
 R. D. Adamson,  B. Austin,  J. Baker,  G. J. O. Beran,  K. Brandhorst,  
 S. T. Brown,  E. F. C. Byrd,  A. K. Chakraborty,  C.-L. Cheng,  
 Siu Hung Chien,  D. M. Chipman,  D. L. Crittenden,  H. Dachsel,  
 R. J. Doerksen,  A. D. Dutoi,  L. Fusti-Molnar,  W. A. Goddard III,  
 A. Golubeva-Zadorozhnaya,  S. R. Gwaltney,  G. Hawkins,  A. Heyden,  
 S. Hirata,  G. Kedziora,  F. J. Keil,  C. Kelley,  Jihan Kim,  R. A. King,  
 R. Z. Khaliullin,  P. P. Korambath,  W. Kurlancheek,  A. M. Lee,  M. S. Lee,  
 S. V. Levchenko,  Ching Yeh Lin,  D. Liotard,  R. C. Lochan,  I. Lotan,  
 P. E. Maslen,  N. Nair,  D. P. O'Neill,  D. Neuhauser,  E. Neuscamman,  
 C. M. Oana,  R. Olson,  B. Peters,  R. Peverati,  P. A. Pieniazek,  
 Y. M. Rhee,  J. Ritchie,  M. A. Rohrdanz,  E. Rosta,  N. J. Russ,  
 H. F. Schaefer III,  N. E. Schultz,  N. Shenvi,  A. C. Simmonett,  A. Sodt,  
 D. Stuck,  K. S. Thanthiriwatte,  V. Vanovschi,  Tao Wang,  A. Warshel,  
 C. F. Williams,  Q. Wu,  X. Xu,  W. Zhang

 Please cite Q-Chem as follows:
 Y. Shao et al., Mol. Phys. 113, 184-215 (2015)
 DOI: 10.1080/00268976.2014.952696

 Q-Chem 5.0.2 for Intel X86 EM64T Linux

 Parts of Q-Chem use Armadillo 5.200.1 (Boston Tea Smuggler).
 http://arma.sourceforge.net/

 Q-Chem begins on Thu Feb  1 12:09:22 2018  


Host: 0

     Scratch files written to /home/jcartus/scratch/11_benF3-ben.dir//
 Using version located at /usr/local/qchem/bin/qchem

 Parallel job on  1  processors

Total Memory Limit in MB = 2000
Mega-Array Size in MB = 192

Checking the input file for inconsistencies... 	...done.
Finally everything over in PARseQInput

--------------------------------------------------------------
User input:
--------------------------------------------------------------
$rem
SCF_PRINT                     1
BASIS                         6-311++g**
SCF_SAVE_MATRICES             1
SCF_CONVERGENCE               5
SCF_FINAL_PRINT               1
METHOD                        hf
JOBTYPE                       sp
$end

$molecule
0 1
F    -1.914074031    -1.171208027    -0.110672709
H    -2.180664731    1.398938308    -0.409375369
C    0.373446598    -0.776856318    0.213048434
C    -0.901105553    -0.295713511    -0.038342168
C    -1.178590841    1.05107584    -0.215317349
C    -0.111215305    1.930588158    -0.127725254
C    1.187438475    1.517317904    0.123482484
C    1.394209663    0.156584712    0.290367081
F    -0.346665186    3.242328465    -0.288420034
H    2.000411788    2.222856141    0.189254724
H    0.559538929    -1.828333656    0.360285918
F    2.639006191    -0.274021355    0.541291643
H    -1.982727901    -2.229710809    3.302751592
H    -2.449489395    0.193673563    3.123490546
C    0.127581029    -1.959602814    3.614622471
C    -1.175738052    -1.515819137    3.395968839
C    -1.43842973    -0.150603905    3.294462135
C    -0.398879384    0.770556176    3.412257913
C    0.904159726    0.325967381    3.630272076
C    1.167830304    -1.039033251    3.73196994
H    -0.602955098    1.829871089    3.332690746
H    1.711481364    1.040279331    3.720124956
H    0.331418327    -3.018852194    3.696210666
H    2.179355046    -1.382919174    3.899512705
$end


--------------------------------------------------------------
 ----------------------------------------------------------------
             Standard Nuclear Orientation (Angstroms)
    I     Atom           X                Y                Z
 ----------------------------------------------------------------
    1      F      -0.4615435130    -2.3429434277    -1.4218598318
    2      H      -2.1967294423    -2.1517691129     0.5064887456
    3      C      -0.4323133048     0.0001350494    -1.4686371987
    4      C      -0.9134501565    -1.1811544649    -0.9280437893
    5      C      -1.8390404142    -1.2176989489     0.1035118472
    6      C      -2.2809819792    -0.0001543419     0.5962365277
    7      C      -1.8394672064     1.2175138817     0.1035418216
    8      C      -0.9138302158     1.1812797135    -0.9280020986
    9      F      -3.1730607714    -0.0002968246     1.5992906140
   10      H      -2.1975476164     2.1515550408     0.5065074929
   11      H       0.2977741195     0.0002485292    -2.2616606313
   12      F      -0.4623537534     2.3432640252    -1.4218285663
   13      H       2.9321240171    -2.1368311291    -0.3186167183
   14      H       1.3798674568    -2.1515902124     1.6083172115
   15      C       3.0242718581     0.0086457917    -0.4284489178
   16      C       2.5915483020    -1.2031830355     0.1078487675
   17      C       1.7166597040    -1.2113185961     1.1930339646
   18      C       1.2751830194    -0.0086333765     1.7423273849
   19      C       1.7078542272     1.2026803229     1.2050983445
   20      C       2.5827715533     1.2118346599     0.1199590792
   21      H       0.5956738822    -0.0152958456     2.5839620206
   22      H       1.3642948283     2.1362626738     1.6299209695
   23      H       3.7053887495     0.0153706075    -1.2688357833
   24      H       2.9165440234     2.1521555609    -0.2970576484
 ----------------------------------------------------------------
 Molecular Point Group                 C1    NOp =  1
 Largest Abelian Subgroup              C1    NOp =  1
 Nuclear Repulsion Energy =   967.7141282238 hartrees
 There are       54 alpha and       54 beta electrons
 Requested basis set is 6-311++G(d,p)
 There are 135 shells and 393 basis functions

 Total QAlloc Memory Limit   2000 MB
 Mega-Array Size       188 MB
 MEM_STATIC part       192 MB

finished with qalloc call
 Job number = 2, Threshold = 1.00E-08
Integral type ranges set in mkLRange.C for JobNum: 2  <1-21|1-21>
Symmetry turned off temporarily
 Using the largest function pair in Schwarz integrals
Total number of integrals generated =         1029674
Symmetry turned back on
 A cutoff of  1.0D-08 yielded   7051 shell pairs
 There are     60715 function pairs (     64916 Cartesian)
 Job number = 11, Threshold = 1.00E-08
Integral type ranges set in mkLRange.C for JobNum: 11  <1-21|22-22>
Total number of integrals generated =         1557912
 Smallest overlap matrix eigenvalue = 6.03E-07

 Q-Chem warning in module /usr/local/qchem/stvman/mkSTV.C, line 295:

 Overlap eigenvalue is smaller than square root of threshold

 Linear dependence detected in AO basis
 Number of orthogonalized atomic orbitals = 392
 Maximum deviation from orthogonality = 5.457E-10
 Multipole matrices computed through 2nd order

 Scale SEOQF with 1.000000e-01/1.000000e-01/1.000000e-01

 Standard Electronic Orientation quadrupole field applied
 Nucleus-field energy     =     0.0000000133 hartrees
 ENuRep (before)= 967.7141282238
 ENucField = 0.0000000133
 ENuRep (after) = 967.7141282370
 Guess from superposition of atomic densities
 Warning:  Energy on first SCF cycle will be non-variational
 SAD guess density has 108.000000 electrons

 ==================================================
    GEN_SCFMAN: A general SCF calculation manager  
                                                   
    Authors:                                       
        -- Eric Jon Sundstrom 2008-2014            
        -- Paul Horn 2010-2015                     
        -- Yuezhi Mao 2012-                        
        -- Dmitri Zuev 2014                        
        -- Alec White 2015-                        
        -- David Stuck 2015                        
        -- Shaama M.S. 2015                        
        -- Shane Yost 2015-                         
        -- Joonho Lee 2016-                        
        -- David Small 2016-                       
        -- Daniel Levine 2016-                     
        -- Susi Lehtola 2017-                      
        -- Hugh Burton 2017-                       
 ==================================================
 Hartree-Fock
Finding J and K together
 Job number = 22, Threshold = 1.00E-08
Integral type ranges set in mkLRange.C for JobNum: 22  <1-21|1-21>
 MakeJK  time:  CPU      31.57 s  wall      31.67 s
 HF Exchange:              -97.47081824562309
 One-Electron:             -2955.27680989591727
 Total Coulomb:            1321.27477053162534
 Nuclear repulsion:        967.71412823704077
 A restricted SCF calculation will be
 performed using DIIS
 SCF converges when DIIS error is below 1.0e-05
 ---------------------------------------
  Cycle       Energy         DIIS error
 ---------------------------------------
Finding J and K together
 Job number = 22, Threshold = 1.00E-08
Integral type ranges set in mkLRange.C for JobNum: 22  <1-21|1-21>
 MakeJK  time:  CPU     197.00 s  wall     198.79 s
 HF Exchange:              -95.62662817585537
 One-Electron:             -2961.24333658041860
 Total Coulomb:            1331.21023862762354
 Nuclear repulsion:        967.71412823704077
    1    -763.7587293729      3.48e-02  
Finding J and K together
 Job number = 22, Threshold = 1.00E-08
Integral type ranges set in mkLRange.C for JobNum: 22  <1-21|1-21>
 MakeJK  time:  CPU     197.90 s  wall     200.23 s
 HF Exchange:              -95.54798483743502
 One-Electron:             -2962.13794239551680
 Total Coulomb:            1331.85298744484021
 Nuclear repulsion:        967.71412823704077
    2    -757.9455978916      3.04e-03  
Finding J and K together
 Job number = 22, Threshold = 1.00E-08
Integral type ranges set in mkLRange.C for JobNum: 22  <1-21|1-21>
 MakeJK  time:  CPU     190.75 s  wall     197.78 s
 HF Exchange:              -95.76469629807558
 One-Electron:             -2962.44113996243823
 Total Coulomb:            1332.34745650347986
 Nuclear repulsion:        967.71412823704077
    3    -758.1188115511      1.37e-03  
Finding J and K together
 Job number = 22, Threshold = 1.00E-08
Integral type ranges set in mkLRange.C for JobNum: 22  <1-21|1-21>
 MakeJK  time:  CPU     196.52 s  wall     210.66 s
 HF Exchange:              -95.72164778523054
 One-Electron:             -2962.28928397294840
 Total Coulomb:            1332.14919133043713
 Nuclear repulsion:        967.71412823704077
    4    -758.1442515200      4.27e-04  
Finding J and K together
 Job number = 22, Threshold = 1.00E-08
Integral type ranges set in mkLRange.C for JobNum: 22  <1-21|1-21>
 MakeJK  time:  CPU     149.44 s  wall     149.69 s
 HF Exchange:              -95.73579577636710
 One-Electron:             -2962.32581965631289
 Total Coulomb:            1332.19967599893653
 Nuclear repulsion:        967.71412823704077
    5    -758.1476121907      1.00e-04  
Finding J and K together
 Job number = 22, Threshold = 1.00E-08
Integral type ranges set in mkLRange.C for JobNum: 22  <1-21|1-21>
 MakeJK  time:  CPU     130.17 s  wall     130.28 s
 HF Exchange:              -95.73578551507147
 One-Electron:             -2962.33710889353506
 Total Coulomb:            1332.21093621213026
 Nuclear repulsion:        967.71412823704077
    6    -758.1478111967      2.46e-05  
    7    -758.1478299594      8.35e-06  Convergence criterion met
 ---------------------------------------
 SCF time:   CPU 1102.62s  wall 1128.00s 
 Total energy in the final basis set =     -758.1478299594
 HF Exchange:              -95.73578551507147
 One-Electron:             -2962.33710889353506
 Total Coulomb:            1332.21093621213026
 Nuclear repulsion:        967.71412823704077
Wall  1 = 1129
Clock 1 = 1103.19445800781250
 ==================================================
                  Done GEN_SCFMAN                  
 ==================================================

Symmetry turned off temporarily

 --------------------------------------------------------------

                    Orbital Energies (a.u.)
 --------------------------------------------------------------

 Alpha MOs
 -- Occupied --
-26.330 -26.329 -26.329 -11.362 -11.361 -11.361 -11.259 -11.259
-11.257 -11.241 -11.240 -11.240 -11.239 -11.239 -11.238  -1.650
 -1.649  -1.649  -1.194  -1.155  -1.055  -1.055  -1.020  -1.019
 -0.889  -0.889  -0.828  -0.828  -0.802  -0.776  -0.721  -0.721
 -0.721  -0.715  -0.713  -0.709  -0.708  -0.665  -0.664  -0.648
 -0.623  -0.593  -0.592  -0.586  -0.573  -0.572  -0.530  -0.499
 -0.499  -0.496  -0.368  -0.363  -0.339  -0.336
 -- Virtual --
  0.040   0.046   0.047   0.058   0.060   0.067   0.069   0.072
  0.094   0.101   0.104   0.105   0.108   0.115   0.118   0.126
  0.129   0.146   0.155   0.156   0.165   0.170   0.172   0.176
  0.177   0.179   0.181   0.185   0.185   0.200   0.202   0.202
  0.205   0.207   0.208   0.212   0.216   0.217   0.220   0.225
  0.235   0.240   0.240   0.245   0.252   0.255   0.258   0.261
  0.268   0.275   0.276   0.288   0.296   0.300   0.315   0.325
  0.337   0.338   0.345   0.359   0.364   0.365   0.370   0.371
  0.395   0.399   0.411   0.412   0.419   0.433   0.435   0.443
  0.451   0.452   0.457   0.464   0.469   0.477   0.484   0.490
  0.492   0.498   0.498   0.516   0.516   0.524   0.526   0.549
  0.556   0.577   0.580   0.601   0.630   0.641   0.649   0.668
  0.668   0.689   0.689   0.728   0.729   0.743   0.746   0.748
  0.750   0.765   0.772   0.773   0.787   0.803   0.824   0.832
  0.850   0.872   0.885   0.893   0.894   0.901   0.912   0.919
  0.925   0.935   0.944   0.945   0.959   0.961   0.967   0.987
  0.996   1.000   1.011   1.021   1.033   1.040   1.051   1.065
  1.079   1.081   1.087   1.095   1.104   1.125   1.129   1.132
  1.148   1.163   1.186   1.198   1.208   1.225   1.233   1.236
  1.260   1.280   1.281   1.296   1.325   1.340   1.348   1.371
  1.376   1.406   1.410   1.448   1.462   1.465   1.523   1.602
  1.646   1.690   1.694   1.699   1.716   1.718   1.741   1.748
  1.755   1.793   1.798   1.802   1.803   1.805   1.825   1.826
  1.832   1.834   1.855   1.866   1.871   1.884   1.888   1.911
  1.916   1.927   1.932   1.947   1.967   1.973   2.031   2.067
  2.068   2.121   2.125   2.126   2.140   2.144   2.192   2.194
  2.222   2.224   2.232   2.242   2.245   2.248   2.254   2.255
  2.279   2.309   2.322   2.354   2.362   2.378   2.379   2.385
  2.390   2.406   2.432   2.456   2.481   2.482   2.608   2.611
  2.611   2.642   2.661   2.748   2.755   2.784   2.801   2.831
  2.851   2.854   2.907   2.940   2.964   2.968   2.974   3.029
  3.040   3.050   3.058   3.063   3.070   3.073   3.089   3.101
  3.109   3.132   3.149   3.171   3.173   3.219   3.255   3.266
  3.311   3.314   3.327   3.332   3.332   3.356   3.367   3.466
  3.504   3.552   3.556   3.569   3.612   3.613   3.766   3.789
  3.804   3.834   3.938   3.946   3.975   4.028   4.067   4.084
  4.084   4.200   4.209   4.212   4.214   4.274   4.294   4.300
  4.417   4.418   4.430   4.432   4.437   4.499   4.549   4.552
  4.568   4.584   4.585   4.593   4.596   5.229   5.277   5.346
  5.360   5.361   6.976   6.992   7.010   7.074   7.091   7.097
  7.350   7.442   7.453  24.695  24.791  25.045  25.046  25.155
 25.157  25.235  25.243  25.260  25.260  25.331  25.367  68.788
 68.803  68.807
 --------------------------------------------------------------

          Ground-State Mulliken Net Atomic Charges

     Atom                 Charge (a.u.)
  ----------------------------------------
      1 F                    -0.176817
      2 H                     0.289290
      3 C                     1.240419
      4 C                    -1.090135
      5 C                     0.958255
      6 C                    -1.266200
      7 C                     0.959276
      8 C                    -1.093519
      9 F                    -0.187297
     10 H                     0.289364
     11 H                     0.281906
     12 F                    -0.176616
     13 H                     0.206166
     14 H                     0.198772
     15 C                    -0.432430
     16 C                    -0.216143
     17 C                    -0.262799
     18 C                     0.154863
     19 C                    -0.261915
     20 C                    -0.215251
     21 H                     0.202579
     22 H                     0.198430
     23 H                     0.193547
     24 H                     0.206255
  ----------------------------------------
  Sum of atomic charges =     0.000000

 -----------------------------------------------------------------
                    Cartesian Multipole Moments
 -----------------------------------------------------------------
    Charge (ESU x 10^10)
                 0.0000
    Dipole Moment (Debye)
         X       0.3266      Y       0.0001      Z       0.0021
       Tot       0.3266
    Quadrupole Moments (Debye-Ang)
        XX     -89.9976     XY       0.0024     YY     -84.3215
        XZ      -3.7790     YZ       0.0023     ZZ     -87.4815
    Octopole Moments (Debye-Ang^2)
       XXX     -22.4238    XXY       0.0182    XYY     -10.4003
       YYY      -0.0057    XXZ     -31.5774    XYZ       0.0020
       YYZ      16.7896    XZZ      -3.8122    YZZ       0.0027
       ZZZ     -13.7223
    Hexadecapole Moments (Debye-Ang^3)
      XXXX   -2117.2223   XXXY       0.0071   XXYY    -435.2772
      XYYY       0.0198   YYYY    -890.1094   XXXZ     -80.0210
      XXYZ       0.0196   XYYZ     -30.3606   YYYZ       0.0118
      XXZZ    -489.5081   XYZZ       0.0025   YYZZ    -279.8490
      XZZZ     -51.2482   YZZZ       0.0038   ZZZZ    -696.4688
 -----------------------------------------------------------------
 Mayer SCF Bond Order, atomic valence on the diagonal:

            1           2           3           4           5           6
    1   0.8671505  -0.0267091  -0.5925988   2.1054696  -0.5730296   0.0327914
    2  -0.0267091   0.8012399   0.0012191  -0.0226354   0.9178374  -0.0298101
    3  -0.5925988   0.0012191   1.0268554   0.3758128   0.6825878  -0.7910580
    4   2.1054696  -0.0226354   0.3758128   4.6006412   0.5019837   1.2002800
    5  -0.5730296   0.9178374   0.6825878   0.5019837   1.4431936   0.3440877
    6   0.0327914  -0.0298101  -0.7910580   1.2002800   0.3440877   4.1762992
    7  -0.0253415   0.0003263   0.6832090  -0.6315149   0.6681114   0.3449794
    8  -0.0133151  -0.0105801   0.3713318   1.2864192  -0.6322862   1.2014303
    9   0.0017344  -0.0254486  -0.0104311   0.0156683  -0.5039393   1.8474950
   10  -0.0003860   0.0016517   0.0012766  -0.0105728   0.0004023  -0.0298936
   11  -0.0320626   0.0018895   0.9226309  -0.0130014  -0.0100226  -0.0180830
   12   0.0014611  -0.0003853  -0.5929582  -0.0136524  -0.0251455   0.0328656
   13   0.0001937  -0.0001313  -0.0035246  -0.0054310  -0.0005946   0.0005698
   14  -0.0004541   0.0005952   0.0046968  -0.0083159   0.0007330   0.0048035
   15  -0.0161699  -0.0000565   0.0240030   0.0719903   0.0005966  -0.0099171
   16   0.0210367  -0.0011291  -0.0409470  -0.0253827   0.0378465  -0.0021729
   17  -0.0007670  -0.0063906  -0.1227054  -0.0069850  -0.0284377   0.1360378
   18  -0.0265965   0.0009974   0.2679416  -0.3331464   0.0698181  -0.2236706
   19   0.0111139  -0.0006136  -0.1205810   0.1250481  -0.0217249   0.1348278
   20   0.0023263   0.0001479  -0.0430575  -0.0067476   0.0108060  -0.0011210
   21  -0.0010386   0.0004712   0.0035421  -0.0048262   0.0042593  -0.0030037
   22   0.0001034  -0.0000606   0.0048257   0.0003945  -0.0010837   0.0047048
   23  -0.0006680   0.0000144   0.0051839   0.0004537   0.0006023  -0.0004749
   24   0.0000568   0.0000399  -0.0035440  -0.0006671  -0.0002143   0.0006311
            7           8           9          10          11          12
    1  -0.0253415  -0.0133151   0.0017344  -0.0003860  -0.0320626   0.0014611
    2   0.0003263  -0.0105801  -0.0254486   0.0016517   0.0018895  -0.0003853
    3   0.6832090   0.3713318  -0.0104311   0.0012766   0.9226309  -0.5929582
    4  -0.6315149   1.2864192   0.0156683  -0.0105728  -0.0130014  -0.0136524
    5   0.6681114  -0.6322862  -0.5039393   0.0004023  -0.0100226  -0.0251455
    6   0.3449794   1.2014303   1.8474950  -0.0298936  -0.0180830   0.0328656
    7   1.4426418   0.4993345  -0.5053371   0.9179087  -0.0099567  -0.5711351
    8   0.4993345   4.5960243   0.0160670  -0.0228254  -0.0133345   2.1040351
    9  -0.5053371   0.0160670   0.7980474  -0.0255527  -0.0001748   0.0017286
   10   0.9179087  -0.0228254  -0.0255527   0.8010558   0.0018908  -0.0266942
   11  -0.0099567  -0.0133345  -0.0001748   0.0018908   0.8191395  -0.0320909
   12  -0.5711351   2.1040351   0.0017286  -0.0266942  -0.0320909   0.8671031
   13  -0.0001512  -0.0007680   0.0001342   0.0000401  -0.0000873   0.0000626
   14  -0.0012007   0.0005188   0.0003264  -0.0000609   0.0000119   0.0001110
   15   0.0007727   0.0740259  -0.0053001  -0.0000411   0.0240753  -0.0158522
   16   0.0112528  -0.0079546   0.0030780   0.0001475  -0.0039449   0.0021188
   17  -0.0230559   0.1262778  -0.0001634  -0.0006171   0.0001023   0.0109632
   18   0.0708481  -0.3311891  -0.0059685   0.0010736   0.0031829  -0.0265662
   19  -0.0291401  -0.0083982  -0.0000242  -0.0064853   0.0002190  -0.0024671
   20   0.0376792  -0.0248679   0.0030985  -0.0011386  -0.0042091   0.0226648
   21   0.0042359  -0.0048224  -0.0091362   0.0004587   0.0001372  -0.0010194
   22   0.0009134  -0.0080306   0.0003393   0.0005928   0.0000173  -0.0004272
   23   0.0005882   0.0005736  -0.0002751   0.0000148   0.0020488  -0.0006789
   24  -0.0006846  -0.0056176   0.0001290  -0.0001338  -0.0000986   0.0001648
           13          14          15          16          17          18
    1   0.0001937  -0.0004541  -0.0161699   0.0210367  -0.0007670  -0.0265965
    2  -0.0001313   0.0005952  -0.0000565  -0.0011291  -0.0063906   0.0009974
    3  -0.0035246   0.0046968   0.0240030  -0.0409470  -0.1227054   0.2679416
    4  -0.0054310  -0.0083159   0.0719903  -0.0253827  -0.0069850  -0.3331464
    5  -0.0005946   0.0007330   0.0005966   0.0378465  -0.0284377   0.0698181
    6   0.0005698   0.0048035  -0.0099171  -0.0021729   0.1360378  -0.2236706
    7  -0.0001512  -0.0012007   0.0007727   0.0112528  -0.0230559   0.0708481
    8  -0.0007680   0.0005188   0.0740259  -0.0079546   0.1262778  -0.3311891
    9   0.0001342   0.0003264  -0.0053001   0.0030780  -0.0001634  -0.0059685
   10   0.0000401  -0.0000609  -0.0000411   0.0001475  -0.0006171   0.0010736
   11  -0.0000873   0.0000119   0.0240753  -0.0039449   0.0001023   0.0031829
   12   0.0000626   0.0001110  -0.0158522   0.0021188   0.0109632  -0.0265662
   13   0.9089360   0.0026794  -0.0092734   0.9000907   0.0058969   0.0121882
   14   0.0026794   0.9300177   0.0020490   0.0042586   0.9293376  -0.0177442
   15  -0.0092734   0.0020490   4.4479049   1.6752412   0.0957459  -0.1141694
   16   0.9000907   0.0042586   1.6752412   4.2470731   1.5695395   0.1620566
   17   0.0058969   0.9293376   0.0957459   1.5695395   4.2832278   1.5005186
   18   0.0121882  -0.0177442  -0.1141694   0.1620566   1.5005186   3.5957481
   19  -0.0072036   0.0113785   0.0951738  -0.0762636   0.1683401   1.4995279
   20   0.0103020  -0.0085357   1.6741926   0.0073927  -0.0772058   0.1626592
   21   0.0012099   0.0022136  -0.0093310   0.0063776  -0.0092300   0.9382018
   22   0.0000341   0.0015057   0.0019526  -0.0085429   0.0114370  -0.0180630
   23   0.0015859   0.0010759   0.8974664   0.0026903   0.0118109  -0.0083070
   24   0.0011135   0.0000344  -0.0092695   0.0102831  -0.0072220   0.0121550
           19          20          21          22          23          24
    1   0.0111139   0.0023263  -0.0010386   0.0001034  -0.0006680   0.0000568
    2  -0.0006136   0.0001479   0.0004712  -0.0000606   0.0000144   0.0000399
    3  -0.1205810  -0.0430575   0.0035421   0.0048257   0.0051839  -0.0035440
    4   0.1250481  -0.0067476  -0.0048262   0.0003945   0.0004537  -0.0006671
    5  -0.0217249   0.0108060   0.0042593  -0.0010837   0.0006023  -0.0002143
    6   0.1348278  -0.0011210  -0.0030037   0.0047048  -0.0004749   0.0006311
    7  -0.0291401   0.0376792   0.0042359   0.0009134   0.0005882  -0.0006846
    8  -0.0083982  -0.0248679  -0.0048224  -0.0080306   0.0005736  -0.0056176
    9  -0.0000242   0.0030985  -0.0091362   0.0003393  -0.0002751   0.0001290
   10  -0.0064853  -0.0011386   0.0004587   0.0005928   0.0000148  -0.0001338
   11   0.0002190  -0.0042091   0.0001372   0.0000173   0.0020488  -0.0000986
   12  -0.0024671   0.0226648  -0.0010194  -0.0004272  -0.0006789   0.0001648
   13  -0.0072036   0.0103020   0.0012099   0.0000341   0.0015859   0.0011135
   14   0.0113785  -0.0085357   0.0022136   0.0015057   0.0010759   0.0000344
   15   0.0951738   1.6741926  -0.0093310   0.0019526   0.8974664  -0.0092695
   16  -0.0762636   0.0073927   0.0063776  -0.0085429   0.0026903   0.0102831
   17   0.1683401  -0.0772058  -0.0092300   0.0114370   0.0118109  -0.0072220
   18   1.4995279   0.1626592   0.9382018  -0.0180630  -0.0083070   0.0121550
   19   4.2795343   1.5690230  -0.0092772   0.9296643   0.0118157   0.0055810
   20   1.5690230   4.2472601   0.0064642   0.0044194   0.0023696   0.9005980
   21  -0.0092772   0.0064642   0.9193084   0.0021949   0.0000173   0.0012094
   22   0.9296643   0.0044194   0.0021949   0.9306609   0.0010794   0.0026902
   23   0.0118157   0.0023696   0.0000173   0.0010794   0.9305705   0.0015834
   24   0.0055810   0.9005980   0.0012094   0.0026902   0.0015834   0.9088181


 JobOver = TRUE
Archival summary:
1\1\qciep03\SP\HF\BasisUnspecified\3129\jcartus\ThuFeb112:28:142018ThuFeb112:28:142018\0\\#,HF,BasisUnspecified,\\0,1\F\C,1,1.34083\C,2,1.38534,1,118.56\H,3,1.07792,2,121.494,1,-0.680107,0\C,3,1.38537,2,117.001,1,-179.561,0\F,5,1.34086,3,118.561,2,179.565,0\C,2,1.38642,1,118.437,3,-179.833,0\H,7,1.07834,2,121.489,1,-0.138395,0\C,7,1.38582,2,117.019,1,179.675,0\F,9,1.34236,7,118.523,2,-179.713,0\C,9,1.38578,7,122.955,2,0.0268536,0\H,11,1.07844,9,121.493,7,-179.845,0\C,4,3.2855,3,98.7182,2,-89.5565,0\H,13,1.08177,4,95.1092,3,-179.639,0\C,13,1.39404,4,87.6438,3,-59.745,0\H,15,1.08144,13,120.068,4,-94.2303,0\C,15,1.39395,13,119.958,4,85.628,0\H,17,1.0817,15,119.961,13,-179.926,0\C,17,1.39395,15,120.036,13,0.0423797,0\H,19,1.08172,17,120.013,15,-179.956,0\C,19,1.39394,17,119.972,15,-0.0696234,0\H,21,1.08167,19,120.007,17,-179.889,0\C,21,1.39396,19,120.034,17,0.0672056,0\H,23,1.08146,21,119.974,19,-179.896,0\\HF=-758.14783\\@

 Total job time:  1132.24s(wall), 1106.41s(cpu) 
 Thu Feb  1 12:28:14 2018

        *************************************************************
        *                                                           *
        *  Thank you very much for using Q-Chem.  Have a nice day.  *
        *                                                           *
        *************************************************************


*** MISSION COMPLETED -- STARFLEET OUT ***

0 sent ACK to 0 
now end server 0 ... 
