Process 0 of 1 is on qciep03 - thread support 0
initial socket setup ...start
initial socket setup ...done 
now start server 0 ... 
qciep03.tugraz.at 127.0.1
Q-Chem Developer Version! Running on 127.0.1.*
                  Welcome to Q-Chem
     A Quantum Leap Into The Future Of Chemistry


 Q-Chem 5.0, Q-Chem, Inc., Pleasanton, CA (2017)

 Yihan Shao,  Zhengting Gan,  E. Epifanovsky,  A. T. B. Gilbert,  M. Wormit,  
 J. Kussmann,  A. W. Lange,  A. Behn,  Jia Deng,  Xintian Feng,  D. Ghosh,  
 M. Goldey,  P. R. Horn,  L. D. Jacobson,  I. Kaliman,  T. Kus,  A. Landau,  
 Jie Liu,  E. I. Proynov,  R. M. Richard,  R. P. Steele,  E. J. Sundstrom,  
 H. L. Woodcock III,  P. M. Zimmerman,  D. Zuev,  B. Albrecht,  E. Alguire,  
 S. A. Baeppler,  D. Barton,  Z. Benda,  Y. A. Bernard,  E. J. Berquist,  
 K. B. Bravaya,  H. Burton,  D. Casanova,  Chun-Min Chang,  Yunqing Chen,  
 A. Chien,  K. D. Closser,  M. P. Coons,  S. Dasgupta,  A. L. Dempwolff,  
 M. Diedenhofen,  Hainam Do,  R. G. Edgar,  Po-Tung Fang,  S. Fatehi,  
 Qingguo Feng,  J. Fosso-Tande,  Qinghui Ge,  A. Ghysels,  G. Gidofalvi,  
 J. Gomes,  J. Gonthier,  A. Gunina,  M. W. D. Hanson-Heine,  
 P. H. P. Harbach,  A. W. Hauser,  J. E. Herr,  E. G. Hohenstein,  
 Z. C. Holden,  Kerwin Hui,  T.-C. Jagau,  Hyunjun Ji,  B. Kaduk,  
 K. Khistyaev,  Jaehoon Kim,  P. Klunzinger,  K. Koh,  D. Kosenkov,  
 L. Koulias,  T. Kowalczyk,  C. M. Krauter,  A. Kunitsa,  Ka Un Lao,  
 A. Laurent,  K. V. Lawler,  Joonho Lee,  D. Lefrancois,  S. Lehtola,  
 D. S. Levine,  Yi-Pei Li,  You-Sheng Lin,  Fenglai Liu,  E. Livshits,  
 A. Luenser,  P. Manohar,  E. Mansoor,  S. F. Manzer,  Shan-Ping Mao,  
 Yuezhi Mao,  N. Mardirossian,  A. V. Marenich,  T. Markovich,  
 L. A. Martinez-Martinez,  S. A. Maurer,  N. J. Mayhall,  S. C. McKenzie,  
 J.-M. Mewes,  A. F. Morrison,  J. W. Mullinax,  K. Nanda,  
 T. S. Nguyen-Beck,  R. Olivares-Amaya,  J. A. Parkhill,  T. M. Perrine,  
 F. Plasser,  S. Prager,  A. Prociuk,  E. Ramos,  D. R. Rehn,  F. Rob,  
 M. Schneider,  N. Sergueev,  S. M. Sharada,  S. Sharma,  D. W. Small,  
 T. Stauch,  T. Stein,  Yu-Chuan Su,  A. J. W. Thom,  A. Tkatchenko,  
 T. Tsuchimochi,  L. Vogt,  O. Vydrov,  M. A. Watson,  J. Wenzel,  
 M. de Wergifosse,  T. A. Wesolowski,  A. White,  J. Witte,  A. Yamada,  
 Jun Yang,  K. Yao,  S. Yeganeh,  S. R. Yost,  Zhi-Qiang You,  A. Zech,  
 Igor Ying Zhang,  Xing Zhang,  Yan Zhao,  Ying Zhu,  B. R. Brooks,  
 G. K. L. Chan,  C. J. Cramer,  M. S. Gordon,  W. J. Hehre,  A. Klamt,  
 M. W. Schmidt,  C. D. Sherrill,  D. G. Truhlar,  A. Aspuru-Guzik,  R. Baer,  
 A. T. Bell,  N. A. Besley,  Jeng-Da Chai,  R. A. DiStasio Jr.,  A. Dreuw,  
 B. D. Dunietz,  T. R. Furlani,  Chao-Ping Hsu,  Yousung Jung,  Jing Kong,  
 D. S. Lambrecht,  WanZhen Liang,  C. Ochsenfeld,  V. A. Rassolov,  
 L. V. Slipchenko,  J. E. Subotnik,  T. Van Voorhis,  J. M. Herbert,  
 A. I. Krylov,  P. M. W. Gill,  M. Head-Gordon

 Contributors to earlier versions of Q-Chem not listed above: 
 R. D. Adamson,  B. Austin,  J. Baker,  G. J. O. Beran,  K. Brandhorst,  
 S. T. Brown,  E. F. C. Byrd,  A. K. Chakraborty,  C.-L. Cheng,  
 Siu Hung Chien,  D. M. Chipman,  D. L. Crittenden,  H. Dachsel,  
 R. J. Doerksen,  A. D. Dutoi,  L. Fusti-Molnar,  W. A. Goddard III,  
 A. Golubeva-Zadorozhnaya,  S. R. Gwaltney,  G. Hawkins,  A. Heyden,  
 S. Hirata,  G. Kedziora,  F. J. Keil,  C. Kelley,  Jihan Kim,  R. A. King,  
 R. Z. Khaliullin,  P. P. Korambath,  W. Kurlancheek,  A. M. Lee,  M. S. Lee,  
 S. V. Levchenko,  Ching Yeh Lin,  D. Liotard,  R. C. Lochan,  I. Lotan,  
 P. E. Maslen,  N. Nair,  D. P. O'Neill,  D. Neuhauser,  E. Neuscamman,  
 C. M. Oana,  R. Olson,  B. Peters,  R. Peverati,  P. A. Pieniazek,  
 Y. M. Rhee,  J. Ritchie,  M. A. Rohrdanz,  E. Rosta,  N. J. Russ,  
 H. F. Schaefer III,  N. E. Schultz,  N. Shenvi,  A. C. Simmonett,  A. Sodt,  
 D. Stuck,  K. S. Thanthiriwatte,  V. Vanovschi,  Tao Wang,  A. Warshel,  
 C. F. Williams,  Q. Wu,  X. Xu,  W. Zhang

 Please cite Q-Chem as follows:
 Y. Shao et al., Mol. Phys. 113, 184-215 (2015)
 DOI: 10.1080/00268976.2014.952696

 Q-Chem 5.0.2 for Intel X86 EM64T Linux

 Parts of Q-Chem use Armadillo 5.200.1 (Boston Tea Smuggler).
 http://arma.sourceforge.net/

 Q-Chem begins on Thu Jan 25 17:43:49 2018  


Host: 0

     Scratch files written to /home/jcartus/scratch/Uracil-dimer-stack_mono2.dir//
 Using version located at /usr/local/qchem/bin/qchem

 Parallel job on  1  processors

Total Memory Limit in MB = 2000
Mega-Array Size in MB = 192

Checking the input file for inconsistencies... 	...done.
Finally everything over in PARseQInput

--------------------------------------------------------------
User input:
--------------------------------------------------------------
$rem
SCF_PRINT                     1
BASIS                         6-311++g**
SCF_SAVE_MATRICES             1
SCF_CONVERGENCE               5
SCF_FINAL_PRINT               1
METHOD                        hf
JOBTYPE                       sp
$end

$molecule
0 1
N    2.0113587    -1.2132073    -0.0980673
C    2.0257076    -0.6971797    -1.3644029
H    2.2975208    -1.3910592    -2.1456459
C    1.7145226    0.5919651    -1.6124892
H    1.7272873    0.9908466    -2.612005
C    1.3089605    1.457534    -0.520589
O    0.9205926    2.6110864    -0.6260457
N    1.3768885    0.8397454    0.7346356
H    1.051804    1.3862229    1.523371
C    1.6459909    -0.4852113    1.0187267
O    1.561109    -0.9718061    2.1298059
H    2.1294635    -2.2015046    0.0568134
$end


--------------------------------------------------------------
 ----------------------------------------------------------------
             Standard Nuclear Orientation (Angstroms)
    I     Atom           X                Y                Z
 ----------------------------------------------------------------
    1      N       1.1747017623     0.9806838064     0.0147194390
    2      C       0.0126693655     1.7013869669    -0.0043564578
    3      H       0.1318255087     2.7738417369    -0.0408856389
    4      C      -1.1969986193     1.1042505949     0.0158611457
    5      H      -2.1073398471     1.6781189433    -0.0001135463
    6      C      -1.2848176337    -0.3442731364     0.0141276164
    7      O      -2.3129851729    -1.0004052943    -0.0565546551
    8      N      -0.0375729949    -0.9779821169     0.0823881672
    9      H      -0.0432983870    -1.9896887543     0.0291150869
   10      C       1.2160055046    -0.4009775690     0.0172666731
   11      O       2.2521868775    -1.0342576825    -0.0440593838
   12      H       2.0641460138     1.4337989239    -0.1203506985
 ----------------------------------------------------------------
 Molecular Point Group                 C1    NOp =  1
 Largest Abelian Subgroup              C1    NOp =  1
 Nuclear Repulsion Energy =   357.1604515600 hartrees
 There are       29 alpha and       29 beta electrons
 Requested basis set is 6-311++G(d,p)
 There are 68 shells and 204 basis functions

 Total QAlloc Memory Limit   2000 MB
 Mega-Array Size       188 MB
 MEM_STATIC part       192 MB

finished with qalloc call

                       Distance Matrix (Angstroms)
             N (  1)   C (  2)   H (  3)   C (  4)   H (  5)   C (  6)
   C (  2)  1.367515
   H (  3)  2.075114  1.079672
   C (  4)  2.374917  1.349177  2.134603
   H (  5)  3.355359  2.120141  2.493217  1.076244
   C (  6)  2.793698  2.422507  3.425280  1.451184  2.183304
   O (  7)  4.011702  3.565259  4.496920  2.383327  2.687000  1.221734
   N (  8)  2.304466  2.681244  3.757669  2.384195  3.368325  1.400666
   H (  9)  3.210428  3.691652  4.767262  3.302069  4.208793  2.061307
   C ( 10)  1.382281  2.422483  3.355340  2.843994  3.920149  2.501468
   O ( 11)  2.285699  3.535642  4.358619  4.058779  5.134627  3.604146
   H ( 12)  1.007307  2.072104  2.352848  3.280582  4.180364  3.794098
             O (  7)   N (  8)   H (  9)   C ( 10)   O ( 11)
   N (  8)  2.279761
   H (  9)  2.477398  1.013124
   C ( 10)  3.580299  1.381533  2.027311
   O ( 11)  4.565315  2.293939  2.487460  1.215926
   H ( 12)  5.008862  3.205466  4.022926  2.026002  2.476385

 Job number = 2, Threshold = 1.00E-08
Integral type ranges set in mkLRange.C for JobNum: 2  <1-21|1-21>
Symmetry turned off temporarily
 Using the largest function pair in Schwarz integrals
Total number of integrals generated =          345194
Symmetry turned back on
 A cutoff of  1.0D-08 yielded   2073 shell pairs
 There are     19229 function pairs (     20744 Cartesian)
 Job number = 11, Threshold = 1.00E-08
Integral type ranges set in mkLRange.C for JobNum: 11  <1-21|22-22>
Total number of integrals generated =          248928
 Smallest overlap matrix eigenvalue = 1.33E-05

 Q-Chem warning in module /usr/local/qchem/stvman/mkSTV.C, line 295:

 Overlap eigenvalue is smaller than square root of threshold

 Multipole matrices computed through 2nd order

 Scale SEOQF with 1.000000e-01/1.000000e-01/1.000000e-01

 Standard Electronic Orientation quadrupole field applied
 Nucleus-field energy     =     0.0000000098 hartrees
 ENuRep (before)= 357.1604515600
 ENucField = 0.0000000098
 ENuRep (after) = 357.1604515698
 Guess from superposition of atomic densities
 Warning:  Energy on first SCF cycle will be non-variational
 SAD guess density has 58.000000 electrons

 ==================================================
    GEN_SCFMAN: A general SCF calculation manager  
                                                   
    Authors:                                       
        -- Eric Jon Sundstrom 2008-2014            
        -- Paul Horn 2010-2015                     
        -- Yuezhi Mao 2012-                        
        -- Dmitri Zuev 2014                        
        -- Alec White 2015-                        
        -- David Stuck 2015                        
        -- Shaama M.S. 2015                        
        -- Shane Yost 2015-                         
        -- Joonho Lee 2016-                        
        -- David Small 2016-                       
        -- Daniel Levine 2016-                     
        -- Susi Lehtola 2017-                      
        -- Hugh Burton 2017-                       
 ==================================================
 Hartree-Fock
Finding J and K together
 Job number = 22, Threshold = 1.00E-08
Integral type ranges set in mkLRange.C for JobNum: 22  <1-21|1-21>
 MakeJK  time:  CPU       5.16 s  wall       5.27 s
 HF Exchange:              -52.65468903708555
 One-Electron:             -1268.10411183214865
 Total Coulomb:            548.08428623991438
 Nuclear repulsion:        357.16045156983222
 A restricted SCF calculation will be
 performed using DIIS
 SCF converges when DIIS error is below 1.0e-05
 ---------------------------------------
  Cycle       Energy         DIIS error
 ---------------------------------------
Finding J and K together
 Job number = 22, Threshold = 1.00E-08
Integral type ranges set in mkLRange.C for JobNum: 22  <1-21|1-21>
 MakeJK  time:  CPU      22.56 s  wall      22.81 s
 HF Exchange:              -52.04217444370440
 One-Electron:             -1268.92750240346459
 Total Coulomb:            551.47145115501507
 Nuclear repulsion:        357.16045156983222
    1    -415.5140630595      5.16e-02  
Finding J and K together
 Job number = 22, Threshold = 1.00E-08
Integral type ranges set in mkLRange.C for JobNum: 22  <1-21|1-21>
 MakeJK  time:  CPU      22.92 s  wall      22.96 s
 HF Exchange:              -51.71962000982420
 One-Electron:             -1271.02811610391723
 Total Coulomb:            553.14316875505710
 Nuclear repulsion:        357.16045156983222
    2    -412.3377741223      6.89e-03  
Finding J and K together
 Job number = 22, Threshold = 1.00E-08
Integral type ranges set in mkLRange.C for JobNum: 22  <1-21|1-21>
 MakeJK  time:  CPU      23.03 s  wall      23.68 s
 HF Exchange:              -51.94950458667625
 One-Electron:             -1270.38315097468990
 Total Coulomb:            552.59819479640123
 Nuclear repulsion:        357.16045156983222
    3    -412.4441157889      5.90e-03  
Finding J and K together
 Job number = 22, Threshold = 1.00E-08
Integral type ranges set in mkLRange.C for JobNum: 22  <1-21|1-21>
 MakeJK  time:  CPU      23.28 s  wall      23.98 s
 HF Exchange:              -51.95455332935120
 One-Electron:             -1270.39848083683137
 Total Coulomb:            552.61489639903800
 Nuclear repulsion:        357.16045156983222
    4    -412.5740091951      6.52e-04  
Finding J and K together
 Job number = 22, Threshold = 1.00E-08
Integral type ranges set in mkLRange.C for JobNum: 22  <1-21|1-21>
 MakeJK  time:  CPU      21.98 s  wall      22.42 s
 HF Exchange:              -51.95699463738100
 One-Electron:             -1270.39305124237512
 Total Coulomb:            552.61139672897468
 Nuclear repulsion:        357.16045156983222
    5    -412.5776861973      2.37e-04  
Finding J and K together
 Job number = 22, Threshold = 1.00E-08
Integral type ranges set in mkLRange.C for JobNum: 22  <1-21|1-21>
 MakeJK  time:  CPU      23.88 s  wall      24.02 s
 HF Exchange:              -51.95944337587723
 One-Electron:             -1270.41042305750989
 Total Coulomb:            552.63109310541108
 Nuclear repulsion:        357.16045156983222
    6    -412.5781975809      8.49e-05  
Finding J and K together
 Job number = 22, Threshold = 1.00E-08
Integral type ranges set in mkLRange.C for JobNum: 22  <1-21|1-21>
 MakeJK  time:  CPU      20.60 s  wall      20.62 s
 HF Exchange:              -51.96012662444135
 One-Electron:             -1270.40911583193338
 Total Coulomb:            552.63044057296497
 Nuclear repulsion:        357.16045156983222
    7    -412.5783217581      4.41e-05  
Finding J and K together
 Job number = 22, Threshold = 1.00E-08
Integral type ranges set in mkLRange.C for JobNum: 22  <1-21|1-21>
 MakeJK  time:  CPU      24.05 s  wall      24.28 s
 HF Exchange:              -51.96013446949144
 One-Electron:             -1270.40817227810066
 Total Coulomb:            552.62950129162664
 Nuclear repulsion:        357.16045156983222
    8    -412.5783503136      1.81e-05  
    9    -412.5783538861      5.92e-06  Convergence criterion met
 ---------------------------------------
 SCF time:   CPU 189.50s  wall 192.00s 
 Total energy in the final basis set =     -412.5783538861
 HF Exchange:              -51.96013446949144
 One-Electron:             -1270.40817227810066
 Total Coulomb:            552.62950129162664
 Nuclear repulsion:        357.16045156983222
Wall  1 = 192
Clock 1 = 189.72906494140625
 ==================================================
                  Done GEN_SCFMAN                  
 ==================================================

Symmetry turned off temporarily

 --------------------------------------------------------------

                    Orbital Energies (a.u.)
 --------------------------------------------------------------

 Alpha MOs
 -- Occupied --
-20.551 -20.545 -15.649 -15.631 -11.426 -11.387 -11.346 -11.260
 -1.442  -1.402  -1.320  -1.251  -1.094  -0.939  -0.907  -0.812
 -0.770  -0.719  -0.681  -0.673  -0.656  -0.618  -0.606  -0.573
 -0.529  -0.487  -0.452  -0.438  -0.371
 -- Virtual --
  0.023   0.048   0.061   0.070   0.073   0.090   0.102   0.109
  0.128   0.134   0.137   0.146   0.158   0.160   0.168   0.177
  0.185   0.192   0.198   0.200   0.219   0.230   0.243   0.252
  0.256   0.282   0.290   0.300   0.310   0.318   0.339   0.354
  0.369   0.384   0.384   0.397   0.404   0.410   0.413   0.428
  0.430   0.443   0.466   0.479   0.495   0.518   0.551   0.557
  0.625   0.667   0.692   0.708   0.738   0.741   0.761   0.771
  0.789   0.798   0.830   0.853   0.903   0.924   0.945   0.963
  0.974   0.996   1.012   1.019   1.044   1.057   1.076   1.097
  1.125   1.172   1.225   1.241   1.258   1.286   1.318   1.360
  1.391   1.405   1.413   1.431   1.435   1.446   1.473   1.501
  1.517   1.537   1.572   1.741   1.778   1.792   1.814   1.882
  1.898   1.909   1.926   1.953   1.971   2.012   2.014   2.065
  2.114   2.131   2.178   2.215   2.233   2.264   2.282   2.325
  2.352   2.509   2.549   2.589   2.631   2.675   2.725   2.802
  2.824   2.844   2.913   2.960   2.995   3.013   3.037   3.074
  3.144   3.166   3.169   3.207   3.245   3.275   3.290   3.307
  3.315   3.345   3.392   3.500   3.567   3.750   3.760   3.796
  3.823   3.864   3.903   3.951   4.009   4.041   4.094   4.267
  4.308   4.340   4.418   4.482   4.624   5.190   5.281   5.347
  5.602   5.629   5.686   5.761   5.852   6.326   6.363  24.853
 24.966  25.026  25.320  36.982  37.045  51.707  51.749
 --------------------------------------------------------------

          Ground-State Mulliken Net Atomic Charges

     Atom                 Charge (a.u.)
  ----------------------------------------
      1 N                    -0.513610
      2 C                     0.082134
      3 H                     0.228015
      4 C                    -0.164110
      5 H                     0.247694
      6 C                     0.211886
      7 O                    -0.411895
      8 N                    -0.563687
      9 H                     0.400873
     10 C                     0.545843
     11 O                    -0.440224
     12 H                     0.377082
  ----------------------------------------
  Sum of atomic charges =     0.000000

 -----------------------------------------------------------------
                    Cartesian Multipole Moments
 -----------------------------------------------------------------
    Charge (ESU x 10^10)
                 0.0000
    Dipole Moment (Debye)
         X       1.4380      Y       4.9705      Z      -0.0846
       Tot       5.1751
    Quadrupole Moments (Debye-Ang)
        XX     -60.7761     XY       2.4759     YY     -38.3555
        XZ      -0.5813     YZ      -0.6983     ZZ     -46.9623
    Octopole Moments (Debye-Ang^2)
       XXX      11.7126    XXY      34.7742    XYY       5.1541
       YYY       9.0285    XXZ       0.4158    XYZ      -0.7448
       YYZ      -0.8378    XZZ       2.0268    YZZ      -4.2306
       ZZZ      -0.5593
    Hexadecapole Moments (Debye-Ang^3)
      XXXX    -726.7425   XXXY      12.1686   XXYY    -176.6884
      XYYY      13.1761   YYYY    -303.6932   XXXZ      -3.0632
      XXYZ      -3.3807   XYYZ      -1.2909   YYYZ      -2.4014
      XXZZ    -113.8058   XYZZ       3.0404   YYZZ     -75.5817
      XZZZ      -0.1882   YZZZ      -0.1140   ZZZZ     -47.1699
 -----------------------------------------------------------------
 Mayer SCF Bond Order, atomic valence on the diagonal:

            1           2           3           4           5           6
    1   2.7842294   0.8202100  -0.0485641   0.0855092   0.0124450  -0.0589213
    2   0.8202100   3.6967387   0.9008771   2.0817091   0.0537650  -0.0118592
    3  -0.0485641   0.9008771   0.9129694   0.0479740   0.0044195  -0.0001256
    4   0.0855092   2.0817091   0.0479740   4.2350033   0.7930686   1.2231743
    5   0.0124450   0.0537650   0.0044195   0.7930686   0.9037397   0.0585921
    6  -0.0589213  -0.0118592  -0.0001256   1.2231743   0.0585921   3.8511332
    7   0.0073819   0.0204192   0.0017921  -0.0960065  -0.0255305   1.8198703
    8   0.0572147  -0.1089572  -0.0053393   0.0316443   0.0126224   0.8794461
    9   0.0113642  -0.0132726  -0.0004030   0.0035959   0.0014507  -0.0229242
   10   1.0750852  -0.0844665   0.0092602   0.0896581  -0.0065937  -0.0732364
   11  -0.0606603   0.0586651   0.0019004  -0.0183689  -0.0009880   0.0422297
   12   0.8831649  -0.0203513   0.0011781  -0.0069549   0.0004887  -0.0051125
            7           8           9          10          11          12
    1   0.0073819   0.0572147   0.0113642   1.0750852  -0.0606603   0.8831649
    2   0.0204192  -0.1089572  -0.0132726  -0.0844665   0.0586651  -0.0203513
    3   0.0017921  -0.0053393  -0.0004030   0.0092602   0.0019004   0.0011781
    4  -0.0960065   0.0316443   0.0035959   0.0896581  -0.0183689  -0.0069549
    5  -0.0255305   0.0126224   0.0014507  -0.0065937  -0.0009880   0.0004887
    6   1.8198703   0.8794461  -0.0229242  -0.0732364   0.0422297  -0.0051125
    7   1.7445035  -0.0145179  -0.0149811   0.0394566   0.0062465   0.0003728
    8  -0.0145179   2.7393755   0.8833568   1.0396530  -0.0475412   0.0117938
    9  -0.0149811   0.8833568   0.8121537  -0.0275325  -0.0088873   0.0003868
   10   0.0394566   1.0396530  -0.0275325   3.8719868   1.8299521  -0.0192493
   11   0.0062465  -0.0475412  -0.0088873   1.8299521   1.7972043  -0.0053438
   12   0.0003728   0.0117938   0.0003868  -0.0192493  -0.0053438   0.8403734


 JobOver = TRUE
Archival summary:
1\1\qciep03\SP\HF\BasisUnspecified\2244\jcartus\ThuJan2517:47:032018ThuJan2517:47:032018\0\\#,HF,BasisUnspecified,\\0,1\N\H,1,1.01312\C,1,1.38153,2,114.817\O,3,1.21593,1,123.925,2,-2.91,0\N,3,1.38228,1,112.982,2,176.454,0\H,5,1.00731,3,115.055,1,-174.428,0\C,5,1.36751,3,123.518,1,-3.77881,0\H,7,1.07967,5,115.479,3,-177.83,0\C,7,1.34918,5,121.898,3,1.91183,0\H,9,1.07624,7,121.478,5,-179.953,0\C,1,1.40067,2,116.373,3,170.999,0\O,11,1.22173,1,120.612,2,2.55572,0\\HF=-412.578354\\@

 Total job time:  193.60s(wall), 190.52s(cpu) 
 Thu Jan 25 17:47:03 2018

        *************************************************************
        *                                                           *
        *  Thank you very much for using Q-Chem.  Have a nice day.  *
        *                                                           *
        *************************************************************


*** MISSION COMPLETED -- STARFLEET OUT ***

0 sent ACK to 0 
now end server 0 ... 
