Process 0 of 1 is on qciep03 - thread support 0
initial socket setup ...start
initial socket setup ...done 
now start server 0 ... 
qciep03.tugraz.at 127.0.1
Q-Chem Developer Version! Running on 127.0.1.*
                  Welcome to Q-Chem
     A Quantum Leap Into The Future Of Chemistry


 Q-Chem 5.0, Q-Chem, Inc., Pleasanton, CA (2017)

 Yihan Shao,  Zhengting Gan,  E. Epifanovsky,  A. T. B. Gilbert,  M. Wormit,  
 J. Kussmann,  A. W. Lange,  A. Behn,  Jia Deng,  Xintian Feng,  D. Ghosh,  
 M. Goldey,  P. R. Horn,  L. D. Jacobson,  I. Kaliman,  T. Kus,  A. Landau,  
 Jie Liu,  E. I. Proynov,  R. M. Richard,  R. P. Steele,  E. J. Sundstrom,  
 H. L. Woodcock III,  P. M. Zimmerman,  D. Zuev,  B. Albrecht,  E. Alguire,  
 S. A. Baeppler,  D. Barton,  Z. Benda,  Y. A. Bernard,  E. J. Berquist,  
 K. B. Bravaya,  H. Burton,  D. Casanova,  Chun-Min Chang,  Yunqing Chen,  
 A. Chien,  K. D. Closser,  M. P. Coons,  S. Dasgupta,  A. L. Dempwolff,  
 M. Diedenhofen,  Hainam Do,  R. G. Edgar,  Po-Tung Fang,  S. Fatehi,  
 Qingguo Feng,  J. Fosso-Tande,  Qinghui Ge,  A. Ghysels,  G. Gidofalvi,  
 J. Gomes,  J. Gonthier,  A. Gunina,  M. W. D. Hanson-Heine,  
 P. H. P. Harbach,  A. W. Hauser,  J. E. Herr,  E. G. Hohenstein,  
 Z. C. Holden,  Kerwin Hui,  T.-C. Jagau,  Hyunjun Ji,  B. Kaduk,  
 K. Khistyaev,  Jaehoon Kim,  P. Klunzinger,  K. Koh,  D. Kosenkov,  
 L. Koulias,  T. Kowalczyk,  C. M. Krauter,  A. Kunitsa,  Ka Un Lao,  
 A. Laurent,  K. V. Lawler,  Joonho Lee,  D. Lefrancois,  S. Lehtola,  
 D. S. Levine,  Yi-Pei Li,  You-Sheng Lin,  Fenglai Liu,  E. Livshits,  
 A. Luenser,  P. Manohar,  E. Mansoor,  S. F. Manzer,  Shan-Ping Mao,  
 Yuezhi Mao,  N. Mardirossian,  A. V. Marenich,  T. Markovich,  
 L. A. Martinez-Martinez,  S. A. Maurer,  N. J. Mayhall,  S. C. McKenzie,  
 J.-M. Mewes,  A. F. Morrison,  J. W. Mullinax,  K. Nanda,  
 T. S. Nguyen-Beck,  R. Olivares-Amaya,  J. A. Parkhill,  T. M. Perrine,  
 F. Plasser,  S. Prager,  A. Prociuk,  E. Ramos,  D. R. Rehn,  F. Rob,  
 M. Schneider,  N. Sergueev,  S. M. Sharada,  S. Sharma,  D. W. Small,  
 T. Stauch,  T. Stein,  Yu-Chuan Su,  A. J. W. Thom,  A. Tkatchenko,  
 T. Tsuchimochi,  L. Vogt,  O. Vydrov,  M. A. Watson,  J. Wenzel,  
 M. de Wergifosse,  T. A. Wesolowski,  A. White,  J. Witte,  A. Yamada,  
 Jun Yang,  K. Yao,  S. Yeganeh,  S. R. Yost,  Zhi-Qiang You,  A. Zech,  
 Igor Ying Zhang,  Xing Zhang,  Yan Zhao,  Ying Zhu,  B. R. Brooks,  
 G. K. L. Chan,  C. J. Cramer,  M. S. Gordon,  W. J. Hehre,  A. Klamt,  
 M. W. Schmidt,  C. D. Sherrill,  D. G. Truhlar,  A. Aspuru-Guzik,  R. Baer,  
 A. T. Bell,  N. A. Besley,  Jeng-Da Chai,  R. A. DiStasio Jr.,  A. Dreuw,  
 B. D. Dunietz,  T. R. Furlani,  Chao-Ping Hsu,  Yousung Jung,  Jing Kong,  
 D. S. Lambrecht,  WanZhen Liang,  C. Ochsenfeld,  V. A. Rassolov,  
 L. V. Slipchenko,  J. E. Subotnik,  T. Van Voorhis,  J. M. Herbert,  
 A. I. Krylov,  P. M. W. Gill,  M. Head-Gordon

 Contributors to earlier versions of Q-Chem not listed above: 
 R. D. Adamson,  B. Austin,  J. Baker,  G. J. O. Beran,  K. Brandhorst,  
 S. T. Brown,  E. F. C. Byrd,  A. K. Chakraborty,  C.-L. Cheng,  
 Siu Hung Chien,  D. M. Chipman,  D. L. Crittenden,  H. Dachsel,  
 R. J. Doerksen,  A. D. Dutoi,  L. Fusti-Molnar,  W. A. Goddard III,  
 A. Golubeva-Zadorozhnaya,  S. R. Gwaltney,  G. Hawkins,  A. Heyden,  
 S. Hirata,  G. Kedziora,  F. J. Keil,  C. Kelley,  Jihan Kim,  R. A. King,  
 R. Z. Khaliullin,  P. P. Korambath,  W. Kurlancheek,  A. M. Lee,  M. S. Lee,  
 S. V. Levchenko,  Ching Yeh Lin,  D. Liotard,  R. C. Lochan,  I. Lotan,  
 P. E. Maslen,  N. Nair,  D. P. O'Neill,  D. Neuhauser,  E. Neuscamman,  
 C. M. Oana,  R. Olson,  B. Peters,  R. Peverati,  P. A. Pieniazek,  
 Y. M. Rhee,  J. Ritchie,  M. A. Rohrdanz,  E. Rosta,  N. J. Russ,  
 H. F. Schaefer III,  N. E. Schultz,  N. Shenvi,  A. C. Simmonett,  A. Sodt,  
 D. Stuck,  K. S. Thanthiriwatte,  V. Vanovschi,  Tao Wang,  A. Warshel,  
 C. F. Williams,  Q. Wu,  X. Xu,  W. Zhang

 Please cite Q-Chem as follows:
 Y. Shao et al., Mol. Phys. 113, 184-215 (2015)
 DOI: 10.1080/00268976.2014.952696

 Q-Chem 5.0.2 for Intel X86 EM64T Linux

 Parts of Q-Chem use Armadillo 5.200.1 (Boston Tea Smuggler).
 http://arma.sourceforge.net/

 Q-Chem begins on Thu Jan 25 17:52:50 2018  


Host: 0

     Scratch files written to /home/jcartus/scratch/Ethene-ethyne-complex_mono2.dir//
 Using version located at /usr/local/qchem/bin/qchem

 Parallel job on  1  processors

Total Memory Limit in MB = 2000
Mega-Array Size in MB = 192

Checking the input file for inconsistencies... 	...done.
Finally everything over in PARseQInput

--------------------------------------------------------------
User input:
--------------------------------------------------------------
$rem
SCF_PRINT                     1
BASIS                         6-311++g**
SCF_SAVE_MATRICES             1
SCF_CONVERGENCE               5
SCF_FINAL_PRINT               1
METHOD                        hf
JOBTYPE                       sp
$end

$molecule
0 1
C    0.0    -0.667578    -2.124659
C    0.0    0.667578    -2.124659
H    0.923621    -1.232253    -2.126185
H    -0.923621    -1.232253    -2.126185
H    -0.923621    1.232253    -2.126185
H    0.923621    1.232253    -2.126185
$end


--------------------------------------------------------------
 I,J,IOp=           1           2           2  D=   2.2204509865082305E-016 Fix sym
 I, IOp=           1           3  D=   1.5449404173041381E-016 Fix sym
 I,J,IOp=           3           5           2  D=   6.1649409668542394E-016 Fix sym
 I,J,IOp=           3           4           3  D=   6.1649409668542394E-016 Fix sym
 I,J,IOp=           3           6           4  D=   6.2803713320917744E-016 Fix sym
 ----------------------------------------------------------------
             Standard Nuclear Orientation (Angstroms)
    I     Atom           X                Y                Z
 ----------------------------------------------------------------
    1      C      -0.6675780000    -0.0000000000    -0.0003815000
    2      C       0.6675780000     0.0000000000    -0.0003815000
    3      H      -1.2322530000     0.9236210000     0.0011445000
    4      H      -1.2322530000    -0.9236210000     0.0011445000
    5      H       1.2322530000    -0.9236210000     0.0011445000
    6      H       1.2322530000     0.9236210000     0.0011445000
 ----------------------------------------------------------------
 Molecular Point Group                 C2v   NOp =  4
 Largest Abelian Subgroup              C2v   NOp =  4
 Nuclear Repulsion Energy =    33.3580722216 hartrees
 There are        8 alpha and        8 beta electrons
 Requested basis set is 6-311++G(d,p)
 There are 32 shells and 72 basis functions

 Total QAlloc Memory Limit   2000 MB
 Mega-Array Size       188 MB
 MEM_STATIC part       192 MB

finished with qalloc call

                       Distance Matrix (Angstroms)
             C (  1)   C (  2)   H (  3)   H (  4)   H (  5)
   C (  2)  1.335156
   H (  3)  1.082560  2.112448
   H (  4)  1.082560  2.112448  1.847242
   H (  5)  2.112448  1.082560  3.079950  2.464506
   H (  6)  2.112448  1.082560  2.464506  3.079950  1.847242

 Job number = 2, Threshold = 1.00E-08
Integral type ranges set in mkLRange.C for JobNum: 2  <1-21|1-21>
Symmetry turned off temporarily
 Using the largest function pair in Schwarz integrals
Total number of integrals generated =           34747
Symmetry turned back on
 A cutoff of  1.0D-08 yielded    526 shell pairs
 There are      2706 function pairs (      2863 Cartesian)
 Job number = 11, Threshold = 1.00E-08
Integral type ranges set in mkLRange.C for JobNum: 11  <1-21|22-22>
Total number of integrals generated =            6450
 Smallest overlap matrix eigenvalue = 1.47E-04
 Multipole matrices computed through 2nd order

 Scale SEOQF with 1.000000e-01/1.000000e-01/1.000000e-01

 Standard Electronic Orientation quadrupole field applied
 Nucleus-field energy     =     0.0000000007 hartrees
 ENuRep (before)= 33.3580722216
 ENucField = 0.0000000007
 ENuRep (after) = 33.3580722223
 Guess from superposition of atomic densities
 Warning:  Energy on first SCF cycle will be non-variational
 SAD guess density has 16.000000 electrons

 ==================================================
    GEN_SCFMAN: A general SCF calculation manager  
                                                   
    Authors:                                       
        -- Eric Jon Sundstrom 2008-2014            
        -- Paul Horn 2010-2015                     
        -- Yuezhi Mao 2012-                        
        -- Dmitri Zuev 2014                        
        -- Alec White 2015-                        
        -- David Stuck 2015                        
        -- Shaama M.S. 2015                        
        -- Shane Yost 2015-                         
        -- Joonho Lee 2016-                        
        -- David Small 2016-                       
        -- Daniel Levine 2016-                     
        -- Susi Lehtola 2017-                      
        -- Hugh Burton 2017-                       
 ==================================================
 Hartree-Fock
Finding J and K together
 Job number = 22, Threshold = 1.00E-08
Integral type ranges set in mkLRange.C for JobNum: 22  <1-21|1-21>
 MakeJK  time:  CPU       0.25 s  wall       0.25 s
 HF Exchange:              -11.74841442010900
 One-Electron:             -168.11470333519111
 Total Coulomb:             68.06481223957849
 Nuclear repulsion:         33.35807222229977
 A restricted SCF calculation will be
 performed using DIIS
 SCF converges when DIIS error is below 1.0e-05
 ---------------------------------------
  Cycle       Energy         DIIS error
 ---------------------------------------
Finding J and K together
 Job number = 22, Threshold = 1.00E-08
Integral type ranges set in mkLRange.C for JobNum: 22  <1-21|1-21>
 MakeJK  time:  CPU       0.39 s  wall       0.40 s
 HF Exchange:              -11.70874957906581
 One-Electron:             -170.21176599996821
 Total Coulomb:             70.52947422617207
 Nuclear repulsion:         33.35807222229977
    1     -78.4402332934      6.84e-02  
Finding J and K together
 Job number = 22, Threshold = 1.00E-08
Integral type ranges set in mkLRange.C for JobNum: 22  <1-21|1-21>
 MakeJK  time:  CPU       0.40 s  wall       0.40 s
 HF Exchange:              -11.71524662568049
 One-Electron:             -169.85879747301848
 Total Coulomb:             70.16208505070207
 Nuclear repulsion:         33.35807222229977
    2     -78.0329691306      4.90e-03  
Finding J and K together
 Job number = 22, Threshold = 1.00E-08
Integral type ranges set in mkLRange.C for JobNum: 22  <1-21|1-21>
 MakeJK  time:  CPU       0.39 s  wall       0.39 s
 HF Exchange:              -11.74466986393251
 One-Electron:             -170.07320096512137
 Total Coulomb:             70.40431062140983
 Nuclear repulsion:         33.35807222229977
    3     -78.0538868257      1.30e-03  
Finding J and K together
 Job number = 22, Threshold = 1.00E-08
Integral type ranges set in mkLRange.C for JobNum: 22  <1-21|1-21>
 MakeJK  time:  CPU       0.39 s  wall       0.39 s
 HF Exchange:              -11.73926996436499
 One-Electron:             -169.99547377350197
 Total Coulomb:             70.32101969866602
 Nuclear repulsion:         33.35807222229977
    4     -78.0554879853      4.31e-04  
Finding J and K together
 Job number = 22, Threshold = 1.00E-08
Integral type ranges set in mkLRange.C for JobNum: 22  <1-21|1-21>
 MakeJK  time:  CPU       0.39 s  wall       0.39 s
 HF Exchange:              -11.73981997391832
 One-Electron:             -169.99959110451135
 Total Coulomb:             70.32568170810649
 Nuclear repulsion:         33.35807222229977
    5     -78.0556518169      5.69e-05  
Finding J and K together
 Job number = 22, Threshold = 1.00E-08
Integral type ranges set in mkLRange.C for JobNum: 22  <1-21|1-21>
 MakeJK  time:  CPU       0.32 s  wall       0.32 s
 HF Exchange:              -11.73977650208104
 One-Electron:             -169.99928976965043
 Total Coulomb:             70.32533651755631
 Nuclear repulsion:         33.35807222229977
    6     -78.0556571480      1.26e-05  
    7     -78.0556575319      3.01e-06  Convergence criterion met
 ---------------------------------------
 SCF time:   CPU 2.64s  wall 2.00s 
 Total energy in the final basis set =      -78.0556575319
 HF Exchange:              -11.73977650208104
 One-Electron:             -169.99928976965043
 Total Coulomb:             70.32533651755631
 Nuclear repulsion:         33.35807222229977
Wall  1 = 2
Clock 1 = 2.66587209701538
 ==================================================
                  Done GEN_SCFMAN                  
 ==================================================

Symmetry turned off temporarily

 --------------------------------------------------------------
             Orbital Energies (a.u.) and Symmetries
 --------------------------------------------------------------

 Alpha MOs, Restricted
 -- Occupied --                  
-11.234 -11.232  -1.035  -0.794  -0.645  -0.589  -0.509  -0.376
  1 A1    1 B1    2 A1    2 B1    1 B2    3 A1    1 A2    4 A1                 
 -- Virtual --                   
  0.049   0.062   0.064   0.082   0.106   0.130   0.141   0.176
  5 A1    3 B1    2 B2    2 A2    4 B1    6 A1    7 A1    5 B1                 
  0.185   0.206   0.222   0.226   0.232   0.264   0.289   0.315
  8 A1    3 B2    6 B1    7 B1    3 A2    9 A1    4 B2    8 B1                 
  0.462   0.513   0.580   0.589   0.701   0.709   0.725   0.809
  4 A2    9 B1   10 A1    5 B2   11 A1   10 B1   12 A1   11 B1                 
  0.842   0.928   0.949   0.960   0.980   1.094   1.232   1.342
  6 B2    5 A2   12 B1   13 A1    6 A2   13 B1    7 B2   14 A1                 
  1.358   1.638   1.681   1.701   1.869   1.872   1.873   1.882
  7 A2   15 A1    8 A2    8 B2   16 A1   14 B1    9 B2   15 B1                 
  2.046   2.076   2.266   2.399   2.404   2.448   2.459   2.558
 17 A1   10 B2   16 B1    9 A2   17 B1   18 A1   10 A2   18 B1                 
  2.702   2.767   2.875   2.905   3.007   3.024   3.123   3.168
 19 A1   11 B2   11 A2   12 B2   20 A1   19 B1   21 A1   20 B1                 
  3.287   3.530   3.851   4.062   4.237   4.539  24.916  25.421
 21 B1   12 A2   22 A1   13 B2   13 A2   22 B1   23 A1   23 B1                 

 Beta MOs, Restricted
 -- Occupied --                  
-11.234 -11.232  -1.035  -0.794  -0.645  -0.589  -0.509  -0.376
  1 A1    1 B1    2 A1    2 B1    1 B2    3 A1    1 A2    4 A1                 
 -- Virtual --                   
  0.049   0.062   0.064   0.082   0.106   0.130   0.141   0.176
  5 A1    3 B1    2 B2    2 A2    4 B1    6 A1    7 A1    5 B1                 
  0.185   0.206   0.222   0.226   0.232   0.264   0.289   0.315
  8 A1    3 B2    6 B1    7 B1    3 A2    9 A1    4 B2    8 B1                 
  0.462   0.513   0.580   0.589   0.701   0.709   0.725   0.809
  4 A2    9 B1   10 A1    5 B2   11 A1   10 B1   12 A1   11 B1                 
  0.842   0.928   0.949   0.960   0.980   1.094   1.232   1.342
  6 B2    5 A2   12 B1   13 A1    6 A2   13 B1    7 B2   14 A1                 
  1.358   1.638   1.681   1.701   1.869   1.872   1.873   1.882
  7 A2   15 A1    8 A2    8 B2   16 A1   14 B1    9 B2   15 B1                 
  2.046   2.076   2.266   2.399   2.404   2.448   2.459   2.558
 17 A1   10 B2   16 B1    9 A2   17 B1   18 A1   10 A2   18 B1                 
  2.702   2.767   2.875   2.905   3.007   3.024   3.123   3.168
 19 A1   11 B2   11 A2   12 B2   20 A1   19 B1   21 A1   20 B1                 
  3.287   3.530   3.851   4.062   4.237   4.539  24.916  25.421
 21 B1   12 A2   22 A1   13 B2   13 A2   22 B1   23 A1   23 B1                 
 --------------------------------------------------------------

          Ground-State Mulliken Net Atomic Charges

     Atom                 Charge (a.u.)
  ----------------------------------------
      1 C                    -0.224645
      2 C                    -0.224645
      3 H                     0.112322
      4 H                     0.112322
      5 H                     0.112322
      6 H                     0.112322
  ----------------------------------------
  Sum of atomic charges =     0.000000

 -----------------------------------------------------------------
                    Cartesian Multipole Moments
 -----------------------------------------------------------------
    Charge (ESU x 10^10)
                 0.0000
    Dipole Moment (Debye)
         X      -0.0000      Y       0.0000      Z       0.0050
       Tot       0.0050
    Quadrupole Moments (Debye-Ang)
        XX     -12.2224     XY      -0.0000     YY     -12.3826
        XZ       0.0000     YZ       0.0000     ZZ     -16.1880
    Octopole Moments (Debye-Ang^2)
       XXX       0.0000    XXY       0.0000    XYY      -0.0000
       YYY       0.0000    XXZ       0.0121    XYZ      -0.0000
       YYZ       0.0082    XZZ      -0.0000    YZZ      -0.0000
       ZZZ       0.0097
    Hexadecapole Moments (Debye-Ang^3)
      XXXX     -68.2711   XXXY       0.0000   XXYY     -13.1058
      XYYY       0.0000   YYYY     -26.8820   XXXZ       0.0000
      XXYZ       0.0000   XYYZ      -0.0000   YYYZ       0.0000
      XXZZ     -16.0535   XYZZ       0.0000   YYZZ      -8.7808
      XZZZ      -0.0000   YZZZ       0.0000   ZZZZ     -21.2846
 -----------------------------------------------------------------
 Mayer SCF Bond Order, atomic valence on the diagonal:

            1           2           3           4           5           6
    1   3.9137125   1.9645562   0.9833252   0.9833252  -0.0087470  -0.0087470
    2   1.9645562   3.9137125  -0.0087470  -0.0087470   0.9833252   0.9833252
    3   0.9833252  -0.0087470   0.9762401  -0.0051145   0.0032366   0.0035398
    4   0.9833252  -0.0087470  -0.0051145   0.9762401   0.0035398   0.0032366
    5  -0.0087470   0.9833252   0.0032366   0.0035398   0.9762401  -0.0051145
    6  -0.0087470   0.9833252   0.0035398   0.0032366  -0.0051145   0.9762401


 JobOver = TRUE
Archival summary:
1\1\qciep03\SP\HF\BasisUnspecified\24\jcartus\ThuJan2517:52:532018ThuJan2517:52:532018\0\\#,HF,BasisUnspecified,\\0,1\C\H,1,1.08256\H,1,1.08256,2,117.119\C,1,1.33516,2,121.44,3,179.819,0\H,4,1.08256,1,121.44,2,-179.811,0\H,4,1.08256,1,121.44,2,-0,0\\HF=-78.0556575\\@

 Total job time:  2.92s(wall), 2.87s(cpu) 
 Thu Jan 25 17:52:53 2018

        *************************************************************
        *                                                           *
        *  Thank you very much for using Q-Chem.  Have a nice day.  *
        *                                                           *
        *************************************************************


*** MISSION COMPLETED -- STARFLEET OUT ***

0 sent ACK to 0 
now end server 0 ... 
