Process 0 of 1 is on qciep03 - thread support 0
initial socket setup ...start
initial socket setup ...done 
now start server 0 ... 
qciep03.tugraz.at 127.0.1
Q-Chem Developer Version! Running on 127.0.1.*
                  Welcome to Q-Chem
     A Quantum Leap Into The Future Of Chemistry


 Q-Chem 5.0, Q-Chem, Inc., Pleasanton, CA (2017)

 Yihan Shao,  Zhengting Gan,  E. Epifanovsky,  A. T. B. Gilbert,  M. Wormit,  
 J. Kussmann,  A. W. Lange,  A. Behn,  Jia Deng,  Xintian Feng,  D. Ghosh,  
 M. Goldey,  P. R. Horn,  L. D. Jacobson,  I. Kaliman,  T. Kus,  A. Landau,  
 Jie Liu,  E. I. Proynov,  R. M. Richard,  R. P. Steele,  E. J. Sundstrom,  
 H. L. Woodcock III,  P. M. Zimmerman,  D. Zuev,  B. Albrecht,  E. Alguire,  
 S. A. Baeppler,  D. Barton,  Z. Benda,  Y. A. Bernard,  E. J. Berquist,  
 K. B. Bravaya,  H. Burton,  D. Casanova,  Chun-Min Chang,  Yunqing Chen,  
 A. Chien,  K. D. Closser,  M. P. Coons,  S. Dasgupta,  A. L. Dempwolff,  
 M. Diedenhofen,  Hainam Do,  R. G. Edgar,  Po-Tung Fang,  S. Fatehi,  
 Qingguo Feng,  J. Fosso-Tande,  Qinghui Ge,  A. Ghysels,  G. Gidofalvi,  
 J. Gomes,  J. Gonthier,  A. Gunina,  M. W. D. Hanson-Heine,  
 P. H. P. Harbach,  A. W. Hauser,  J. E. Herr,  E. G. Hohenstein,  
 Z. C. Holden,  Kerwin Hui,  T.-C. Jagau,  Hyunjun Ji,  B. Kaduk,  
 K. Khistyaev,  Jaehoon Kim,  P. Klunzinger,  K. Koh,  D. Kosenkov,  
 L. Koulias,  T. Kowalczyk,  C. M. Krauter,  A. Kunitsa,  Ka Un Lao,  
 A. Laurent,  K. V. Lawler,  Joonho Lee,  D. Lefrancois,  S. Lehtola,  
 D. S. Levine,  Yi-Pei Li,  You-Sheng Lin,  Fenglai Liu,  E. Livshits,  
 A. Luenser,  P. Manohar,  E. Mansoor,  S. F. Manzer,  Shan-Ping Mao,  
 Yuezhi Mao,  N. Mardirossian,  A. V. Marenich,  T. Markovich,  
 L. A. Martinez-Martinez,  S. A. Maurer,  N. J. Mayhall,  S. C. McKenzie,  
 J.-M. Mewes,  A. F. Morrison,  J. W. Mullinax,  K. Nanda,  
 T. S. Nguyen-Beck,  R. Olivares-Amaya,  J. A. Parkhill,  T. M. Perrine,  
 F. Plasser,  S. Prager,  A. Prociuk,  E. Ramos,  D. R. Rehn,  F. Rob,  
 M. Schneider,  N. Sergueev,  S. M. Sharada,  S. Sharma,  D. W. Small,  
 T. Stauch,  T. Stein,  Yu-Chuan Su,  A. J. W. Thom,  A. Tkatchenko,  
 T. Tsuchimochi,  L. Vogt,  O. Vydrov,  M. A. Watson,  J. Wenzel,  
 M. de Wergifosse,  T. A. Wesolowski,  A. White,  J. Witte,  A. Yamada,  
 Jun Yang,  K. Yao,  S. Yeganeh,  S. R. Yost,  Zhi-Qiang You,  A. Zech,  
 Igor Ying Zhang,  Xing Zhang,  Yan Zhao,  Ying Zhu,  B. R. Brooks,  
 G. K. L. Chan,  C. J. Cramer,  M. S. Gordon,  W. J. Hehre,  A. Klamt,  
 M. W. Schmidt,  C. D. Sherrill,  D. G. Truhlar,  A. Aspuru-Guzik,  R. Baer,  
 A. T. Bell,  N. A. Besley,  Jeng-Da Chai,  R. A. DiStasio Jr.,  A. Dreuw,  
 B. D. Dunietz,  T. R. Furlani,  Chao-Ping Hsu,  Yousung Jung,  Jing Kong,  
 D. S. Lambrecht,  WanZhen Liang,  C. Ochsenfeld,  V. A. Rassolov,  
 L. V. Slipchenko,  J. E. Subotnik,  T. Van Voorhis,  J. M. Herbert,  
 A. I. Krylov,  P. M. W. Gill,  M. Head-Gordon

 Contributors to earlier versions of Q-Chem not listed above: 
 R. D. Adamson,  B. Austin,  J. Baker,  G. J. O. Beran,  K. Brandhorst,  
 S. T. Brown,  E. F. C. Byrd,  A. K. Chakraborty,  C.-L. Cheng,  
 Siu Hung Chien,  D. M. Chipman,  D. L. Crittenden,  H. Dachsel,  
 R. J. Doerksen,  A. D. Dutoi,  L. Fusti-Molnar,  W. A. Goddard III,  
 A. Golubeva-Zadorozhnaya,  S. R. Gwaltney,  G. Hawkins,  A. Heyden,  
 S. Hirata,  G. Kedziora,  F. J. Keil,  C. Kelley,  Jihan Kim,  R. A. King,  
 R. Z. Khaliullin,  P. P. Korambath,  W. Kurlancheek,  A. M. Lee,  M. S. Lee,  
 S. V. Levchenko,  Ching Yeh Lin,  D. Liotard,  R. C. Lochan,  I. Lotan,  
 P. E. Maslen,  N. Nair,  D. P. O'Neill,  D. Neuhauser,  E. Neuscamman,  
 C. M. Oana,  R. Olson,  B. Peters,  R. Peverati,  P. A. Pieniazek,  
 Y. M. Rhee,  J. Ritchie,  M. A. Rohrdanz,  E. Rosta,  N. J. Russ,  
 H. F. Schaefer III,  N. E. Schultz,  N. Shenvi,  A. C. Simmonett,  A. Sodt,  
 D. Stuck,  K. S. Thanthiriwatte,  V. Vanovschi,  Tao Wang,  A. Warshel,  
 C. F. Williams,  Q. Wu,  X. Xu,  W. Zhang

 Please cite Q-Chem as follows:
 Y. Shao et al., Mol. Phys. 113, 184-215 (2015)
 DOI: 10.1080/00268976.2014.952696

 Q-Chem 5.0.2 for Intel X86 EM64T Linux

 Parts of Q-Chem use Armadillo 5.200.1 (Boston Tea Smuggler).
 http://arma.sourceforge.net/

 Q-Chem begins on Thu Jan 25 17:52:17 2018  


Host: 0

     Scratch files written to /home/jcartus/scratch/Formamide-dimer_mono1.dir//
 Using version located at /usr/local/qchem/bin/qchem

 Parallel job on  1  processors

Total Memory Limit in MB = 2000
Mega-Array Size in MB = 192

Checking the input file for inconsistencies... 	...done.
Finally everything over in PARseQInput

--------------------------------------------------------------
User input:
--------------------------------------------------------------
$rem
SCF_PRINT                     1
BASIS                         6-311++g**
SCF_SAVE_MATRICES             1
SCF_CONVERGENCE               5
SCF_FINAL_PRINT               1
METHOD                        hf
JOBTYPE                       sp
$end

$molecule
0 1
C    2.018649    -0.052883    0.0
O    1.4522    -1.143634    0.0
N    1.40777    1.142484    0.0
H    1.964596    1.977036    0.0
H    0.387244    1.207782    0.0
H    3.117061    0.013701    0.0
$end


--------------------------------------------------------------
 I, IOp=           1           2  D=   2.4757114695094935E-016 Fix sym
 I, IOp=           2           2  D=   1.1746259835259494E-015 Fix sym
 I, IOp=           3           2  D=   6.9826980253839617E-016 Fix sym
 I, IOp=           4           2  D=   1.8974416477509051E-015 Fix sym
 I, IOp=           5           2  D=   1.6508016832261388E-016 Fix sym
 I, IOp=           6           2  D=   1.2913308893048399E-015 Fix sym
 ----------------------------------------------------------------
             Standard Nuclear Orientation (Angstroms)
    I     Atom           X                Y                Z
 ----------------------------------------------------------------
    1      C      -0.1465100455    -0.3839002197    -0.0000000000
    2      O      -1.2040927917     0.2422953955     0.0000000000
    3      N       1.0809609665     0.1595980157    -0.0000000000
    4      H       1.8832755430    -0.4427503514    -0.0000000000
    5      H       1.2028772060     1.1749174610     0.0000000000
    6      H      -0.1410769080    -1.4843150650    -0.0000000000
 ----------------------------------------------------------------
 Molecular Point Group                 Cs    NOp =  2
 Largest Abelian Subgroup              Cs    NOp =  2
 Nuclear Repulsion Energy =    71.0728640444 hartrees
 There are       12 alpha and       12 beta electrons
 Requested basis set is 6-311++G(d,p)
 There are 33 shells and 87 basis functions

 Total QAlloc Memory Limit   2000 MB
 Mega-Array Size       188 MB
 MEM_STATIC part       192 MB

finished with qalloc call

                       Distance Matrix (Angstroms)
             C (  1)   O (  2)   N (  3)   H (  4)   H (  5)
   O (  2)  1.229066
   N (  3)  1.342414  2.286550
   H (  4)  2.030639  3.162456  1.003261
   H (  5)  2.061737  2.581335  1.022613  1.754933
   H (  6)  1.100428  2.027606  2.048372  2.276590  2.979552

 Job number = 2, Threshold = 1.00E-08
Integral type ranges set in mkLRange.C for JobNum: 2  <1-21|1-21>
Symmetry turned off temporarily
 Using the largest function pair in Schwarz integrals
Total number of integrals generated =           61578
Symmetry turned back on
 A cutoff of  1.0D-08 yielded    549 shell pairs
 There are      3883 function pairs (      4164 Cartesian)
 Job number = 11, Threshold = 1.00E-08
Integral type ranges set in mkLRange.C for JobNum: 11  <1-21|22-22>
Total number of integrals generated =           24984
 Smallest overlap matrix eigenvalue = 8.38E-04
 Multipole matrices computed through 2nd order

 Scale SEOQF with 1.000000e-01/1.000000e-01/1.000000e-01

 Standard Electronic Orientation quadrupole field applied
 Nucleus-field energy     =     0.0000000013 hartrees
 ENuRep (before)= 71.0728640444
 ENucField = 0.0000000013
 ENuRep (after) = 71.0728640456
 Guess from superposition of atomic densities
 Warning:  Energy on first SCF cycle will be non-variational
 SAD guess density has 24.000000 electrons

 ==================================================
    GEN_SCFMAN: A general SCF calculation manager  
                                                   
    Authors:                                       
        -- Eric Jon Sundstrom 2008-2014            
        -- Paul Horn 2010-2015                     
        -- Yuezhi Mao 2012-                        
        -- Dmitri Zuev 2014                        
        -- Alec White 2015-                        
        -- David Stuck 2015                        
        -- Shaama M.S. 2015                        
        -- Shane Yost 2015-                         
        -- Joonho Lee 2016-                        
        -- David Small 2016-                       
        -- Daniel Levine 2016-                     
        -- Susi Lehtola 2017-                      
        -- Hugh Burton 2017-                       
 ==================================================
 Hartree-Fock
Finding J and K together
 Job number = 22, Threshold = 1.00E-08
Integral type ranges set in mkLRange.C for JobNum: 22  <1-21|1-21>
 MakeJK  time:  CPU       0.72 s  wall       0.81 s
 HF Exchange:              -21.02958502521582
 One-Electron:             -369.42791087273474
 Total Coulomb:            149.76809147945622
 Nuclear repulsion:         71.07286404562797
 A restricted SCF calculation will be
 performed using DIIS
 SCF converges when DIIS error is below 1.0e-05
 ---------------------------------------
  Cycle       Energy         DIIS error
 ---------------------------------------
Finding J and K together
 Job number = 22, Threshold = 1.00E-08
Integral type ranges set in mkLRange.C for JobNum: 22  <1-21|1-21>
 MakeJK  time:  CPU       1.52 s  wall       1.73 s
 HF Exchange:              -21.18589721960936
 One-Electron:             -371.82457996826560
 Total Coulomb:            153.04858636074991
 Nuclear repulsion:         71.07286404562797
    1    -169.6165403729      7.26e-02  
Finding J and K together
 Job number = 22, Threshold = 1.00E-08
Integral type ranges set in mkLRange.C for JobNum: 22  <1-21|1-21>
 MakeJK  time:  CPU       1.46 s  wall       1.46 s
 HF Exchange:              -20.94664838558974
 One-Electron:             -370.54871005579895
 Total Coulomb:            151.48572468380229
 Nuclear repulsion:         71.07286404562797
    2    -168.8890267815      1.03e-02  
Finding J and K together
 Job number = 22, Threshold = 1.00E-08
Integral type ranges set in mkLRange.C for JobNum: 22  <1-21|1-21>
 MakeJK  time:  CPU       1.26 s  wall       1.27 s
 HF Exchange:              -21.08734264020398
 One-Electron:             -371.27596916576022
 Total Coulomb:            152.30724486567925
 Nuclear repulsion:         71.07286404562797
    3    -168.9367697120      8.38e-03  
Finding J and K together
 Job number = 22, Threshold = 1.00E-08
Integral type ranges set in mkLRange.C for JobNum: 22  <1-21|1-21>
 MakeJK  time:  CPU       1.32 s  wall       1.33 s
 HF Exchange:              -21.09169128599198
 One-Electron:             -371.25881820263459
 Total Coulomb:            152.29325872523776
 Nuclear repulsion:         71.07286404562797
    4    -168.9832028947      8.43e-04  
Finding J and K together
 Job number = 22, Threshold = 1.00E-08
Integral type ranges set in mkLRange.C for JobNum: 22  <1-21|1-21>
 MakeJK  time:  CPU       1.18 s  wall       1.18 s
 HF Exchange:              -21.09093558852942
 One-Electron:             -371.24739914061524
 Total Coulomb:            152.28091025811486
 Nuclear repulsion:         71.07286404562797
    5    -168.9843867178      3.19e-04  
Finding J and K together
 Job number = 22, Threshold = 1.00E-08
Integral type ranges set in mkLRange.C for JobNum: 22  <1-21|1-21>
 MakeJK  time:  CPU       1.54 s  wall       1.54 s
 HF Exchange:              -21.09248069169920
 One-Electron:             -371.25548804283267
 Total Coulomb:            152.29049960314910
 Nuclear repulsion:         71.07286404562797
    6    -168.9845604254      1.19e-04  
Finding J and K together
 Job number = 22, Threshold = 1.00E-08
Integral type ranges set in mkLRange.C for JobNum: 22  <1-21|1-21>
 MakeJK  time:  CPU       1.49 s  wall       1.50 s
 HF Exchange:              -21.09225248699743
 One-Electron:             -371.25183861545906
 Total Coulomb:            152.28661223216477
 Nuclear repulsion:         71.07286404562797
    7    -168.9846050858      5.87e-05  
Finding J and K together
 Job number = 22, Threshold = 1.00E-08
Integral type ranges set in mkLRange.C for JobNum: 22  <1-21|1-21>
 MakeJK  time:  CPU       1.18 s  wall       1.18 s
 HF Exchange:              -21.09250877080936
 One-Electron:             -371.25442662659879
 Total Coulomb:            152.28945577911270
 Nuclear repulsion:         71.07286404562797
    8    -168.9846148247      1.79e-05  
    9    -168.9846155727      5.01e-06  Convergence criterion met
 ---------------------------------------
 SCF time:   CPU 11.84s  wall 12.00s 
 Total energy in the final basis set =     -168.9846155727
 HF Exchange:              -21.09250877080936
 One-Electron:             -371.25442662659879
 Total Coulomb:            152.28945577911270
 Nuclear repulsion:         71.07286404562797
Wall  1 = 12
Clock 1 = 11.86952495574951
 ==================================================
                  Done GEN_SCFMAN                  
 ==================================================

Symmetry turned off temporarily

 --------------------------------------------------------------
             Orbital Energies (a.u.) and Symmetries
 --------------------------------------------------------------

 Alpha MOs, Restricted
 -- Occupied --                  
-20.528 -15.604 -11.361  -1.379  -1.229  -0.857  -0.758  -0.679
  1 A'    2 A'    3 A'    4 A'    5 A'    6 A'    7 A'    8 A'                 
 -0.604  -0.572  -0.436  -0.422
  9 A'    1 A"   10 A'    2 A"                                                 
 -- Virtual --                   
  0.033   0.053   0.072   0.105   0.126   0.131   0.167   0.169
 11 A'   12 A'   13 A'    3 A"   14 A'   15 A'   16 A'    4 A"                 
  0.207   0.227   0.232   0.259   0.292   0.312   0.327   0.346
 17 A'    5 A"   18 A'   19 A'   20 A'   21 A'   22 A'    6 A"                 
  0.383   0.398   0.459   0.544   0.585   0.655   0.676   0.709
 23 A'   24 A'   25 A'   26 A'   27 A'   28 A'   29 A'    7 A"                 
  0.825   0.831   0.921   0.993   0.999   1.058   1.142   1.312
 30 A'   31 A'   32 A'   33 A'    8 A"   34 A'   35 A'   36 A'                 
  1.317   1.358   1.372   1.393   1.426   1.537   1.725   1.768
  9 A"   10 A"   37 A'   11 A"   38 A'   12 A"   39 A'   40 A'                 
  1.812   1.908   1.957   1.988   2.063   2.065   2.250   2.349
 41 A'   42 A'   13 A"   43 A'   44 A'   14 A"   45 A'   46 A'                 
  2.593   2.683   2.759   2.763   2.845   2.885   3.065   3.110
 47 A'   15 A"   16 A"   48 A'   49 A'   50 A'   51 A'   17 A"                 
  3.159   3.285   3.304   3.380   3.600   3.753   3.796   3.970
 52 A'   53 A'   18 A"   54 A'   55 A'   19 A"   56 A'   57 A'                 
  4.041   4.299   4.364   5.217   5.377   5.598   5.723   6.305
 58 A'   20 A"   59 A'   60 A'   61 A'   21 A"   62 A'   63 A'                 
 25.027  37.017  51.681
 64 A'   65 A'   66 A'                                                         

 Beta MOs, Restricted
 -- Occupied --                  
-20.528 -15.604 -11.361  -1.379  -1.229  -0.857  -0.758  -0.679
  1 A'    2 A'    3 A'    4 A'    5 A'    6 A'    7 A'    8 A'                 
 -0.604  -0.572  -0.436  -0.422
  9 A'    1 A"   10 A'    2 A"                                                 
 -- Virtual --                   
  0.033   0.053   0.072   0.105   0.126   0.131   0.167   0.169
 11 A'   12 A'   13 A'    3 A"   14 A'   15 A'   16 A'    4 A"                 
  0.207   0.227   0.232   0.259   0.292   0.312   0.327   0.346
 17 A'    5 A"   18 A'   19 A'   20 A'   21 A'   22 A'    6 A"                 
  0.383   0.398   0.459   0.544   0.585   0.655   0.676   0.709
 23 A'   24 A'   25 A'   26 A'   27 A'   28 A'   29 A'    7 A"                 
  0.825   0.831   0.921   0.993   0.999   1.058   1.142   1.312
 30 A'   31 A'   32 A'   33 A'    8 A"   34 A'   35 A'   36 A'                 
  1.317   1.358   1.372   1.393   1.426   1.537   1.725   1.768
  9 A"   10 A"   37 A'   11 A"   38 A'   12 A"   39 A'   40 A'                 
  1.812   1.908   1.957   1.988   2.063   2.065   2.250   2.349
 41 A'   42 A'   13 A"   43 A'   44 A'   14 A"   45 A'   46 A'                 
  2.593   2.683   2.759   2.763   2.845   2.885   3.065   3.110
 47 A'   15 A"   16 A"   48 A'   49 A'   50 A'   51 A'   17 A"                 
  3.159   3.285   3.304   3.380   3.600   3.753   3.796   3.970
 52 A'   53 A'   18 A"   54 A'   55 A'   19 A"   56 A'   57 A'                 
  4.041   4.299   4.364   5.217   5.377   5.598   5.723   6.305
 58 A'   20 A"   59 A'   60 A'   61 A'   21 A"   62 A'   63 A'                 
 25.027  37.017  51.681
 64 A'   65 A'   66 A'                                                         
 --------------------------------------------------------------

          Ground-State Mulliken Net Atomic Charges

     Atom                 Charge (a.u.)
  ----------------------------------------
      1 C                     0.239521
      2 O                    -0.462362
      3 N                    -0.446974
      4 H                     0.265092
      5 H                     0.297282
      6 H                     0.107440
  ----------------------------------------
  Sum of atomic charges =    -0.000000

 -----------------------------------------------------------------
                    Cartesian Multipole Moments
 -----------------------------------------------------------------
    Charge (ESU x 10^10)
                -0.0000
    Dipole Moment (Debye)
         X       4.4129      Y      -1.2707      Z       0.0000
       Tot       4.5923
    Quadrupole Moments (Debye-Ang)
        XX     -18.8773     XY       1.4157     YY     -14.8711
        XZ       0.0000     YZ      -0.0000     ZZ     -19.1176
    Octopole Moments (Debye-Ang^2)
       XXX      14.4324    XXY      -1.2302    XYY       3.5361
       YYY       1.3267    XXZ       0.0000    XYZ      -0.0000
       YYZ       0.0000    XZZ      -1.2879    YZZ      -0.1114
       ZZZ       0.0000
    Hexadecapole Moments (Debye-Ang^3)
      XXXX    -113.4099   XXXY      -2.2855   XXYY     -22.8004
      XYYY       4.3242   YYYY     -31.5341   XXXZ       0.0000
      XXYZ       0.0000   XYYZ       0.0000   YYYZ       0.0000
      XXZZ     -25.9486   XYZZ      -0.1983   YYZZ      -9.6341
      XZZZ       0.0000   YZZZ       0.0000   ZZZZ     -18.4584
 -----------------------------------------------------------------
 Mayer SCF Bond Order, atomic valence on the diagonal:

            1           2           3           4           5           6
    1   3.9182038   1.8257937   1.0994676   0.0019521  -0.0001300   0.9911203
    2   1.8257937   1.8044122  -0.0712433   0.0225914  -0.0014192   0.0286896
    3   1.0994676  -0.0712433   2.7667775   0.9175284   0.9101877  -0.0891628
    4   0.0019521   0.0225914   0.9175284   0.9548923   0.0047621   0.0080583
    5  -0.0001300  -0.0014192   0.9101877   0.0047621   0.9210702   0.0076696
    6   0.9911203   0.0286896  -0.0891628   0.0080583   0.0076696   0.9463750


 JobOver = TRUE
Archival summary:
1\1\qciep03\SP\HF\BasisUnspecified\1113\jcartus\ThuJan2517:52:292018ThuJan2517:52:292018\0\\#,HF,BasisUnspecified,\\0,1\C\H,1,1.10043\O,1,1.22907,2,120.913\N,1,1.34241,2,113.6,3,-180,0\H,4,1.00326,1,119.219,2,-0,0\H,4,1.02261,1,120.73,2,180,0\\HF=-168.984616\\@

 Total job time:  12.64s(wall), 12.07s(cpu) 
 Thu Jan 25 17:52:29 2018

        *************************************************************
        *                                                           *
        *  Thank you very much for using Q-Chem.  Have a nice day.  *
        *                                                           *
        *************************************************************


*** MISSION COMPLETED -- STARFLEET OUT ***

0 sent ACK to 0 
now end server 0 ... 
