Process 0 of 1 is on qciep03 - thread support 0
initial socket setup ...start
initial socket setup ...done 
now start server 0 ... 
qciep03.tugraz.at 127.0.1
Q-Chem Developer Version! Running on 127.0.1.*
                  Welcome to Q-Chem
     A Quantum Leap Into The Future Of Chemistry


 Q-Chem 5.0, Q-Chem, Inc., Pleasanton, CA (2017)

 Yihan Shao,  Zhengting Gan,  E. Epifanovsky,  A. T. B. Gilbert,  M. Wormit,  
 J. Kussmann,  A. W. Lange,  A. Behn,  Jia Deng,  Xintian Feng,  D. Ghosh,  
 M. Goldey,  P. R. Horn,  L. D. Jacobson,  I. Kaliman,  T. Kus,  A. Landau,  
 Jie Liu,  E. I. Proynov,  R. M. Richard,  R. P. Steele,  E. J. Sundstrom,  
 H. L. Woodcock III,  P. M. Zimmerman,  D. Zuev,  B. Albrecht,  E. Alguire,  
 S. A. Baeppler,  D. Barton,  Z. Benda,  Y. A. Bernard,  E. J. Berquist,  
 K. B. Bravaya,  H. Burton,  D. Casanova,  Chun-Min Chang,  Yunqing Chen,  
 A. Chien,  K. D. Closser,  M. P. Coons,  S. Dasgupta,  A. L. Dempwolff,  
 M. Diedenhofen,  Hainam Do,  R. G. Edgar,  Po-Tung Fang,  S. Fatehi,  
 Qingguo Feng,  J. Fosso-Tande,  Qinghui Ge,  A. Ghysels,  G. Gidofalvi,  
 J. Gomes,  J. Gonthier,  A. Gunina,  M. W. D. Hanson-Heine,  
 P. H. P. Harbach,  A. W. Hauser,  J. E. Herr,  E. G. Hohenstein,  
 Z. C. Holden,  Kerwin Hui,  T.-C. Jagau,  Hyunjun Ji,  B. Kaduk,  
 K. Khistyaev,  Jaehoon Kim,  P. Klunzinger,  K. Koh,  D. Kosenkov,  
 L. Koulias,  T. Kowalczyk,  C. M. Krauter,  A. Kunitsa,  Ka Un Lao,  
 A. Laurent,  K. V. Lawler,  Joonho Lee,  D. Lefrancois,  S. Lehtola,  
 D. S. Levine,  Yi-Pei Li,  You-Sheng Lin,  Fenglai Liu,  E. Livshits,  
 A. Luenser,  P. Manohar,  E. Mansoor,  S. F. Manzer,  Shan-Ping Mao,  
 Yuezhi Mao,  N. Mardirossian,  A. V. Marenich,  T. Markovich,  
 L. A. Martinez-Martinez,  S. A. Maurer,  N. J. Mayhall,  S. C. McKenzie,  
 J.-M. Mewes,  A. F. Morrison,  J. W. Mullinax,  K. Nanda,  
 T. S. Nguyen-Beck,  R. Olivares-Amaya,  J. A. Parkhill,  T. M. Perrine,  
 F. Plasser,  S. Prager,  A. Prociuk,  E. Ramos,  D. R. Rehn,  F. Rob,  
 M. Schneider,  N. Sergueev,  S. M. Sharada,  S. Sharma,  D. W. Small,  
 T. Stauch,  T. Stein,  Yu-Chuan Su,  A. J. W. Thom,  A. Tkatchenko,  
 T. Tsuchimochi,  L. Vogt,  O. Vydrov,  M. A. Watson,  J. Wenzel,  
 M. de Wergifosse,  T. A. Wesolowski,  A. White,  J. Witte,  A. Yamada,  
 Jun Yang,  K. Yao,  S. Yeganeh,  S. R. Yost,  Zhi-Qiang You,  A. Zech,  
 Igor Ying Zhang,  Xing Zhang,  Yan Zhao,  Ying Zhu,  B. R. Brooks,  
 G. K. L. Chan,  C. J. Cramer,  M. S. Gordon,  W. J. Hehre,  A. Klamt,  
 M. W. Schmidt,  C. D. Sherrill,  D. G. Truhlar,  A. Aspuru-Guzik,  R. Baer,  
 A. T. Bell,  N. A. Besley,  Jeng-Da Chai,  R. A. DiStasio Jr.,  A. Dreuw,  
 B. D. Dunietz,  T. R. Furlani,  Chao-Ping Hsu,  Yousung Jung,  Jing Kong,  
 D. S. Lambrecht,  WanZhen Liang,  C. Ochsenfeld,  V. A. Rassolov,  
 L. V. Slipchenko,  J. E. Subotnik,  T. Van Voorhis,  J. M. Herbert,  
 A. I. Krylov,  P. M. W. Gill,  M. Head-Gordon

 Contributors to earlier versions of Q-Chem not listed above: 
 R. D. Adamson,  B. Austin,  J. Baker,  G. J. O. Beran,  K. Brandhorst,  
 S. T. Brown,  E. F. C. Byrd,  A. K. Chakraborty,  C.-L. Cheng,  
 Siu Hung Chien,  D. M. Chipman,  D. L. Crittenden,  H. Dachsel,  
 R. J. Doerksen,  A. D. Dutoi,  L. Fusti-Molnar,  W. A. Goddard III,  
 A. Golubeva-Zadorozhnaya,  S. R. Gwaltney,  G. Hawkins,  A. Heyden,  
 S. Hirata,  G. Kedziora,  F. J. Keil,  C. Kelley,  Jihan Kim,  R. A. King,  
 R. Z. Khaliullin,  P. P. Korambath,  W. Kurlancheek,  A. M. Lee,  M. S. Lee,  
 S. V. Levchenko,  Ching Yeh Lin,  D. Liotard,  R. C. Lochan,  I. Lotan,  
 P. E. Maslen,  N. Nair,  D. P. O'Neill,  D. Neuhauser,  E. Neuscamman,  
 C. M. Oana,  R. Olson,  B. Peters,  R. Peverati,  P. A. Pieniazek,  
 Y. M. Rhee,  J. Ritchie,  M. A. Rohrdanz,  E. Rosta,  N. J. Russ,  
 H. F. Schaefer III,  N. E. Schultz,  N. Shenvi,  A. C. Simmonett,  A. Sodt,  
 D. Stuck,  K. S. Thanthiriwatte,  V. Vanovschi,  Tao Wang,  A. Warshel,  
 C. F. Williams,  Q. Wu,  X. Xu,  W. Zhang

 Please cite Q-Chem as follows:
 Y. Shao et al., Mol. Phys. 113, 184-215 (2015)
 DOI: 10.1080/00268976.2014.952696

 Q-Chem 5.0.2 for Intel X86 EM64T Linux

 Parts of Q-Chem use Armadillo 5.200.1 (Boston Tea Smuggler).
 http://arma.sourceforge.net/

 Q-Chem begins on Thu Feb  1 12:05:04 2018  


Host: 0

     Scratch files written to /home/jcartus/scratch/25_benBr-mSH_mono1.dir//
 Using version located at /usr/local/qchem/bin/qchem

 Parallel job on  1  processors

Total Memory Limit in MB = 2000
Mega-Array Size in MB = 192

Checking the input file for inconsistencies... 	...done.
Finally everything over in PARseQInput

--------------------------------------------------------------
User input:
--------------------------------------------------------------
$rem
SCF_PRINT                     1
BASIS                         6-311++g**
SCF_SAVE_MATRICES             1
SCF_CONVERGENCE               5
SCF_FINAL_PRINT               1
METHOD                        hf
JOBTYPE                       sp
$end

$molecule
0 1
C    -0.189833176    -0.645396435    0.069807761
C    1.121636324    -0.354065576    0.439096514
C    1.486520953    0.962572632    0.712107225
C    0.54932939    1.989209324    0.617868956
C    -0.757627135    1.68186263    0.246856908
C    -1.13819046    0.370551816    -0.028582325
Br    -2.038462778    3.070459841    0.115165429
H    1.852935245    -1.146434699    0.514119204
H    0.825048723    3.012176989    0.829385472
H    2.502259769    1.196433556    1.000317333
H    -2.157140187    0.151608161    -0.313181471
H    -0.480820487    -1.664983631    -0.142918416
$end


--------------------------------------------------------------
 ----------------------------------------------------------------
             Standard Nuclear Orientation (Angstroms)
    I     Atom           X                Y                Z
 ----------------------------------------------------------------
    1      C       2.1716082156    -1.2049154215    -0.0001271853
    2      C       2.8708311777     0.0001933494    -0.0005760874
    3      C       2.1712880190     1.2051211311    -0.0001054126
    4      C       0.7780432470     1.2129051566     0.0003290785
    5      C       0.0934960891    -0.0002075516     0.0001444050
    6      C       0.7783583758    -1.2131357586     0.0004257568
    7      Br     -1.8001999486    -0.0000019416    -0.0001368296
    8      H       3.9516990323     0.0003361072    -0.0006364955
    9      H       0.2292259700     2.1435071348     0.0019980604
   10      H       2.7069619680     2.1445541002     0.0005709404
   11      H       0.2298259479    -2.1438887617     0.0020279167
   12      H       2.7075345357    -2.1442060587     0.0002852829
 ----------------------------------------------------------------
 Molecular Point Group                 C1    NOp =  1
 Largest Abelian Subgroup              C1    NOp =  1
 Nuclear Repulsion Energy =   431.6142132897 hartrees
 There are       38 alpha and       38 beta electrons
 Requested basis set is 6-311++G(d,p)
 There are 80 shells and 215 basis functions

 Total QAlloc Memory Limit   2000 MB
 Mega-Array Size       188 MB
 MEM_STATIC part       192 MB

finished with qalloc call

                       Distance Matrix (Angstroms)
             C (  1)   C (  2)   C (  3)   C (  4)   C (  5)   C (  6)
   C (  2)  1.393270
   C (  3)  2.410037  1.393274
   C (  4)  2.790677  2.418767  1.393267
   C (  5)  2.402056  2.777335  2.402090  1.392928
   C (  6)  1.393274  2.418804  2.790738  2.426041  1.392922
   Br(  7)  4.150551  4.671031  4.150306  2.849295  1.893696  2.849677
   H (  8)  2.149734  1.080868  2.149737  3.397413  3.858203  3.397441
   H (  9)  3.871019  3.401746  2.156891  1.080381  2.148008  3.401265
   H ( 10)  3.391983  2.150613  1.081426  2.142124  3.380859  3.872156
   H ( 11)  2.156895  3.401765  3.871065  3.401266  2.148013  1.080366
   H ( 12)  1.081427  2.150608  3.391984  3.872097  3.380817  2.142105
             Br(  7)   H (  8)   H (  9)   H ( 10)   H ( 11)
   H (  8)  5.751899
   H (  9)  2.951814  4.295346
   H ( 10)  4.991355  2.479323  2.477737
   H ( 11)  2.952501  4.295352  4.287396  4.952469
   H ( 12)  4.991721  2.479316  4.952424  4.288760  2.477709

 Job number = 2, Threshold = 1.00E-08
Integral type ranges set in mkLRange.C for JobNum: 2  <1-21|1-21>
Symmetry turned off temporarily
 Using the largest function pair in Schwarz integrals
Total number of integrals generated =          339363
Symmetry turned back on
 A cutoff of  1.0D-08 yielded   2712 shell pairs
 There are     20451 function pairs (     22173 Cartesian)
 Job number = 11, Threshold = 1.00E-08
Integral type ranges set in mkLRange.C for JobNum: 11  <1-21|22-22>
Total number of integrals generated =          265560
 Smallest overlap matrix eigenvalue = 1.07E-06

 Q-Chem warning in module /usr/local/qchem/stvman/mkSTV.C, line 295:

 Overlap eigenvalue is smaller than square root of threshold

 Multipole matrices computed through 2nd order

 Scale SEOQF with 1.000000e-01/1.000000e-01/1.000000e-01

 Standard Electronic Orientation quadrupole field applied
 Nucleus-field energy     =     0.0000000130 hartrees
 ENuRep (before)= 431.6142132897
 ENucField = 0.0000000130
 ENuRep (after) = 431.6142133027
 Guess from superposition of atomic densities
 Warning:  Energy on first SCF cycle will be non-variational
 SAD guess density has 76.000000 electrons

 ==================================================
    GEN_SCFMAN: A general SCF calculation manager  
                                                   
    Authors:                                       
        -- Eric Jon Sundstrom 2008-2014            
        -- Paul Horn 2010-2015                     
        -- Yuezhi Mao 2012-                        
        -- Dmitri Zuev 2014                        
        -- Alec White 2015-                        
        -- David Stuck 2015                        
        -- Shaama M.S. 2015                        
        -- Shane Yost 2015-                         
        -- Joonho Lee 2016-                        
        -- David Small 2016-                       
        -- Daniel Levine 2016-                     
        -- Susi Lehtola 2017-                      
        -- Hugh Burton 2017-                       
 ==================================================
 Hartree-Fock
Finding J and K together
 Job number = 22, Threshold = 1.00E-08
Integral type ranges set in mkLRange.C for JobNum: 22  <1-21|1-21>
 MakeJK  time:  CPU       9.00 s  wall       9.03 s
 HF Exchange:              -123.58884391358515
 One-Electron:             -4747.10435288444933
 Total Coulomb:            1633.81511923342532
 Nuclear repulsion:        431.61421330274129
 A restricted SCF calculation will be
 performed using DIIS
 SCF converges when DIIS error is below 1.0e-05
 ---------------------------------------
  Cycle       Energy         DIIS error
 ---------------------------------------
Finding J and K together
 Job number = 22, Threshold = 1.00E-08
Integral type ranges set in mkLRange.C for JobNum: 22  <1-21|1-21>
 MakeJK  time:  CPU      36.66 s  wall      36.90 s
 HF Exchange:              -122.40698009321149
 One-Electron:             -4749.88941621959475
 Total Coulomb:            1638.22319610925183
 Nuclear repulsion:        431.61421330274129
    1   -2805.2638642619      4.43e-02  
Finding J and K together
 Job number = 22, Threshold = 1.00E-08
Integral type ranges set in mkLRange.C for JobNum: 22  <1-21|1-21>
 MakeJK  time:  CPU      36.71 s  wall      36.99 s
 HF Exchange:              -122.54250020771114
 One-Electron:             -4751.61514621364313
 Total Coulomb:            1640.01693664475169
 Nuclear repulsion:        431.61421330274129
    2   -2802.4589869008      3.06e-03  
Finding J and K together
 Job number = 22, Threshold = 1.00E-08
Integral type ranges set in mkLRange.C for JobNum: 22  <1-21|1-21>
 MakeJK  time:  CPU      36.29 s  wall      36.73 s
 HF Exchange:              -122.54255692292698
 One-Electron:             -4750.70079773886027
 Total Coulomb:            1639.09248090246297
 Nuclear repulsion:        431.61421330274129
    3   -2802.5264964739      1.39e-03  
Finding J and K together
 Job number = 22, Threshold = 1.00E-08
Integral type ranges set in mkLRange.C for JobNum: 22  <1-21|1-21>
 MakeJK  time:  CPU      36.72 s  wall      37.91 s
 HF Exchange:              -122.55274572221332
 One-Electron:             -4751.00587484235712
 Total Coulomb:            1639.40479066053786
 Nuclear repulsion:        431.61421330274129
    4   -2802.5366604566      6.32e-04  
Finding J and K together
 Job number = 22, Threshold = 1.00E-08
Integral type ranges set in mkLRange.C for JobNum: 22  <1-21|1-21>
 MakeJK  time:  CPU      34.80 s  wall      34.96 s
 HF Exchange:              -122.55528439180675
 One-Electron:             -4751.00515474633721
 Total Coulomb:            1639.40651284518754
 Nuclear repulsion:        431.61421330274129
    5   -2802.5396166013      1.11e-04  
Finding J and K together
 Job number = 22, Threshold = 1.00E-08
Integral type ranges set in mkLRange.C for JobNum: 22  <1-21|1-21>
 MakeJK  time:  CPU      35.79 s  wall      36.41 s
 HF Exchange:              -122.55482873891060
 One-Electron:             -4750.98633028515633
 Total Coulomb:            1639.38721588806175
 Nuclear repulsion:        431.61421330274129
    6   -2802.5397129902      3.57e-05  
Finding J and K together
 Job number = 22, Threshold = 1.00E-08
Integral type ranges set in mkLRange.C for JobNum: 22  <1-21|1-21>
 MakeJK  time:  CPU      32.70 s  wall      33.82 s
 HF Exchange:              -122.55516444674815
 One-Electron:             -4750.99182970725724
 Total Coulomb:            1639.39304798806188
 Nuclear repulsion:        431.61421330274129
    7   -2802.5397298333      1.28e-05  
    8   -2802.5397328632      5.32e-06  Convergence criterion met
 ---------------------------------------
 SCF time:   CPU 260.63s  wall 264.00s 
 Total energy in the final basis set =    -2802.5397328632
 HF Exchange:              -122.55516444674815
 One-Electron:             -4750.99182970725724
 Total Coulomb:            1639.39304798806188
 Nuclear repulsion:        431.61421330274129
Wall  1 = 265
Clock 1 = 260.83258056640625
 ==================================================
                  Done GEN_SCFMAN                  
 ==================================================

Symmetry turned off temporarily

 --------------------------------------------------------------

                    Orbital Energies (a.u.)
 --------------------------------------------------------------

 Alpha MOs
 -- Occupied --
******* -65.160 -58.520 -58.518 -58.518 -11.304 -11.256 -11.256
-11.254 -11.254 -11.250  -9.840  -7.454  -7.445  -7.445  -3.193
 -3.189  -3.189  -3.179  -3.179  -1.179  -1.075  -1.036  -0.977
 -0.849  -0.821  -0.714  -0.648  -0.647  -0.608  -0.578  -0.534
 -0.518  -0.496  -0.440  -0.417  -0.354  -0.336
 -- Virtual --
  0.038   0.047   0.053   0.069   0.072   0.088   0.093   0.096
  0.117   0.125   0.126   0.138   0.146   0.146   0.173   0.175
  0.176   0.181   0.182   0.190   0.203   0.207   0.207   0.208
  0.220   0.220   0.227   0.235   0.236   0.255   0.281   0.292
  0.300   0.318   0.321   0.327   0.347   0.357   0.400   0.410
  0.411   0.426   0.472   0.475   0.491   0.494   0.580   0.582
  0.601   0.616   0.638   0.710   0.717   0.718   0.724   0.729
  0.730   0.741   0.773   0.778   0.784   0.787   0.804   0.819
  0.857   0.880   0.920   0.920   0.927   0.934   0.948   0.989
  1.005   1.011   1.030   1.050   1.064   1.102   1.109   1.123
  1.124   1.182   1.201   1.204   1.230   1.275   1.293   1.307
  1.345   1.374   1.518   1.520   1.605   1.720   1.777   1.781
  1.810   1.820   1.828   1.880   1.902   1.906   1.943   1.991
  2.005   2.042   2.099   2.144   2.213   2.216   2.217   2.231
  2.240   2.265   2.318   2.342   2.348   2.349   2.365   2.437
  2.592   2.594   2.644   2.672   2.738   2.782   2.790   2.850
  2.950   2.972   2.993   3.006   3.027   3.038   3.044   3.065
  3.154   3.174   3.176   3.191   3.272   3.278   3.310   3.467
  3.527   3.558   3.756   3.780   3.896   3.912   4.023   4.164
  4.396   4.455   4.534   4.557   4.558   4.611   4.636   4.787
  4.966   5.261   7.364   8.228   8.340   8.419  24.682  25.075
 25.123  25.223  25.247  25.347  49.600 293.911 294.025 294.128
*******
 --------------------------------------------------------------

          Ground-State Mulliken Net Atomic Charges

     Atom                 Charge (a.u.)
  ----------------------------------------
      1 C                    -0.128722
      2 C                    -0.376437
      3 C                    -0.128746
      4 C                    -0.410597
      5 C                     0.708765
      6 C                    -0.410771
      7 Br                   -0.380471
      8 H                     0.206916
      9 H                     0.256729
     10 H                     0.203307
     11 H                     0.256722
     12 H                     0.203306
  ----------------------------------------
  Sum of atomic charges =     0.000000

 -----------------------------------------------------------------
                    Cartesian Multipole Moments
 -----------------------------------------------------------------
    Charge (ESU x 10^10)
                 0.0000
    Dipole Moment (Debye)
         X       2.0489      Y       0.0001      Z       0.0032
       Tot       2.0489
    Quadrupole Moments (Debye-Ang)
        XX     -49.4966     XY      -0.0007     YY     -48.3733
        XZ       0.0021     YZ       0.0007     ZZ     -58.7995
    Octopole Moments (Debye-Ang^2)
       XXX     -41.1675    XXY       0.0026    XYY     -11.1778
       YYY      -0.0005    XXZ      -0.0020    XYZ       0.0018
       YYZ       0.0240    XZZ     -26.4187    YZZ       0.0001
       ZZZ      -0.0008
    Hexadecapole Moments (Debye-Ang^3)
      XXXX   -1019.2197   XXXY      -0.0051   XXYY    -224.6006
      XYYY      -0.0009   YYYY    -282.9636   XXXZ       0.0215
      XXYZ       0.0054   XYYZ       0.0211   YYYZ       0.0043
      XXZZ    -223.9051   XYZZ      -0.0001   YYZZ     -72.2492
      XZZZ       0.0170   YZZZ       0.0010   ZZZZ     -72.2763
 -----------------------------------------------------------------
 Mayer SCF Bond Order, atomic valence on the diagonal:

            1           2           3           4           5           6
    1   4.2810756   1.8802174  -0.1852337  -0.0315976  -0.3606958   1.7071692
    2   1.8802174   4.7410196   1.8801488   0.0576632   0.1381246   0.0578172
    3  -0.1852337   1.8801488   4.2809555   1.7073137  -0.3607132  -0.0316762
    4  -0.0315976   0.0576632   1.7073137   4.6569449   1.7918476   0.2458290
    5  -0.3606958   0.1381246  -0.3607132   1.7918476   3.3357509   1.7919382
    6   1.7071692   0.0578172  -0.0316762   0.2458290   1.7919382   4.6567169
    7   0.0930109   0.0211667   0.0929681   0.3422422  -0.0258912   0.3421718
    8   0.1429880   0.7095004   0.1429715  -0.0563181   0.0360321  -0.0563199
    9   0.0257664  -0.0423374   0.1434372   0.6524583   0.1510986  -0.0400806
   10  -0.0055646   0.0405452   0.8715417  -0.0018138   0.0113869  -0.0106211
   11   0.1434394  -0.0423522   0.0257644  -0.0400582   0.1512051   0.6523501
   12   0.8715760   0.0405257  -0.0055668  -0.0106215   0.0114178  -0.0018607
            7           8           9          10          11          12
    1   0.0930109   0.1429880   0.0257664  -0.0055646   0.1434394   0.8715760
    2   0.0211667   0.7095004  -0.0423374   0.0405452  -0.0423522   0.0405257
    3   0.0929681   0.1429715   0.1434372   0.8715417   0.0257644  -0.0055668
    4   0.3422422  -0.0563181   0.6524583  -0.0018138  -0.0400582  -0.0106215
    5  -0.0258912   0.0360321   0.1510986   0.0113869   0.1512051   0.0114178
    6   0.3421718  -0.0563199  -0.0400806  -0.0106211   0.6523501  -0.0018607
    7   0.8447904  -0.0011750  -0.0130780   0.0032209  -0.0130657   0.0032197
    8  -0.0011750   0.9377485   0.0000917   0.0099432   0.0000912   0.0099434
    9  -0.0130780   0.0000917   0.8826132   0.0055185  -0.0002302  -0.0000314
   10   0.0032209   0.0099432   0.0055185   0.9250473  -0.0000309   0.0009214
   11  -0.0130657   0.0000912  -0.0002302  -0.0000309   0.8826302   0.0055172
   12   0.0032197   0.0099434  -0.0000314   0.0009214   0.0055172   0.9250408


 JobOver = TRUE
Archival summary:
1\1\qciep03\SP\HF\BasisUnspecified\r165\jcartus\ThuFeb112:09:302018ThuFeb112:09:302018\0\\#,HF,BasisUnspecified,\\0,1\Br\C,1,1.8937\C,2,1.39292,1,119.457\H,3,1.08037,2,120.037,1,-0.094694,0\C,2,1.39293,1,119.429,3,-179.988,0\H,5,1.08038,2,120.035,1,0.103332,0\C,5,1.39327,2,119.115,1,-179.97,0\H,7,1.08143,5,119.372,2,-179.967,0\C,7,1.39327,5,120.458,2,-0.0066993,0\H,9,1.08087,7,120.131,5,-179.983,0\C,9,1.39327,7,119.739,5,-0.0229722,0\H,11,1.08143,9,120.169,7,-179.953,0\\HF=-2802.53973\\@

 Total job time:  265.88s(wall), 261.70s(cpu) 
 Thu Feb  1 12:09:30 2018

        *************************************************************
        *                                                           *
        *  Thank you very much for using Q-Chem.  Have a nice day.  *
        *                                                           *
        *************************************************************


*** MISSION COMPLETED -- STARFLEET OUT ***

0 sent ACK to 0 
now end server 0 ... 
