Process 0 of 1 is on qciep03 - thread support 0
initial socket setup ...start
initial socket setup ...done 
now start server 0 ... 
qciep03.tugraz.at 127.0.1
Q-Chem Developer Version! Running on 127.0.1.*
                  Welcome to Q-Chem
     A Quantum Leap Into The Future Of Chemistry


 Q-Chem 5.0, Q-Chem, Inc., Pleasanton, CA (2017)

 Yihan Shao,  Zhengting Gan,  E. Epifanovsky,  A. T. B. Gilbert,  M. Wormit,  
 J. Kussmann,  A. W. Lange,  A. Behn,  Jia Deng,  Xintian Feng,  D. Ghosh,  
 M. Goldey,  P. R. Horn,  L. D. Jacobson,  I. Kaliman,  T. Kus,  A. Landau,  
 Jie Liu,  E. I. Proynov,  R. M. Richard,  R. P. Steele,  E. J. Sundstrom,  
 H. L. Woodcock III,  P. M. Zimmerman,  D. Zuev,  B. Albrecht,  E. Alguire,  
 S. A. Baeppler,  D. Barton,  Z. Benda,  Y. A. Bernard,  E. J. Berquist,  
 K. B. Bravaya,  H. Burton,  D. Casanova,  Chun-Min Chang,  Yunqing Chen,  
 A. Chien,  K. D. Closser,  M. P. Coons,  S. Dasgupta,  A. L. Dempwolff,  
 M. Diedenhofen,  Hainam Do,  R. G. Edgar,  Po-Tung Fang,  S. Fatehi,  
 Qingguo Feng,  J. Fosso-Tande,  Qinghui Ge,  A. Ghysels,  G. Gidofalvi,  
 J. Gomes,  J. Gonthier,  A. Gunina,  M. W. D. Hanson-Heine,  
 P. H. P. Harbach,  A. W. Hauser,  J. E. Herr,  E. G. Hohenstein,  
 Z. C. Holden,  Kerwin Hui,  T.-C. Jagau,  Hyunjun Ji,  B. Kaduk,  
 K. Khistyaev,  Jaehoon Kim,  P. Klunzinger,  K. Koh,  D. Kosenkov,  
 L. Koulias,  T. Kowalczyk,  C. M. Krauter,  A. Kunitsa,  Ka Un Lao,  
 A. Laurent,  K. V. Lawler,  Joonho Lee,  D. Lefrancois,  S. Lehtola,  
 D. S. Levine,  Yi-Pei Li,  You-Sheng Lin,  Fenglai Liu,  E. Livshits,  
 A. Luenser,  P. Manohar,  E. Mansoor,  S. F. Manzer,  Shan-Ping Mao,  
 Yuezhi Mao,  N. Mardirossian,  A. V. Marenich,  T. Markovich,  
 L. A. Martinez-Martinez,  S. A. Maurer,  N. J. Mayhall,  S. C. McKenzie,  
 J.-M. Mewes,  A. F. Morrison,  J. W. Mullinax,  K. Nanda,  
 T. S. Nguyen-Beck,  R. Olivares-Amaya,  J. A. Parkhill,  T. M. Perrine,  
 F. Plasser,  S. Prager,  A. Prociuk,  E. Ramos,  D. R. Rehn,  F. Rob,  
 M. Schneider,  N. Sergueev,  S. M. Sharada,  S. Sharma,  D. W. Small,  
 T. Stauch,  T. Stein,  Yu-Chuan Su,  A. J. W. Thom,  A. Tkatchenko,  
 T. Tsuchimochi,  L. Vogt,  O. Vydrov,  M. A. Watson,  J. Wenzel,  
 M. de Wergifosse,  T. A. Wesolowski,  A. White,  J. Witte,  A. Yamada,  
 Jun Yang,  K. Yao,  S. Yeganeh,  S. R. Yost,  Zhi-Qiang You,  A. Zech,  
 Igor Ying Zhang,  Xing Zhang,  Yan Zhao,  Ying Zhu,  B. R. Brooks,  
 G. K. L. Chan,  C. J. Cramer,  M. S. Gordon,  W. J. Hehre,  A. Klamt,  
 M. W. Schmidt,  C. D. Sherrill,  D. G. Truhlar,  A. Aspuru-Guzik,  R. Baer,  
 A. T. Bell,  N. A. Besley,  Jeng-Da Chai,  R. A. DiStasio Jr.,  A. Dreuw,  
 B. D. Dunietz,  T. R. Furlani,  Chao-Ping Hsu,  Yousung Jung,  Jing Kong,  
 D. S. Lambrecht,  WanZhen Liang,  C. Ochsenfeld,  V. A. Rassolov,  
 L. V. Slipchenko,  J. E. Subotnik,  T. Van Voorhis,  J. M. Herbert,  
 A. I. Krylov,  P. M. W. Gill,  M. Head-Gordon

 Contributors to earlier versions of Q-Chem not listed above: 
 R. D. Adamson,  B. Austin,  J. Baker,  G. J. O. Beran,  K. Brandhorst,  
 S. T. Brown,  E. F. C. Byrd,  A. K. Chakraborty,  C.-L. Cheng,  
 Siu Hung Chien,  D. M. Chipman,  D. L. Crittenden,  H. Dachsel,  
 R. J. Doerksen,  A. D. Dutoi,  L. Fusti-Molnar,  W. A. Goddard III,  
 A. Golubeva-Zadorozhnaya,  S. R. Gwaltney,  G. Hawkins,  A. Heyden,  
 S. Hirata,  G. Kedziora,  F. J. Keil,  C. Kelley,  Jihan Kim,  R. A. King,  
 R. Z. Khaliullin,  P. P. Korambath,  W. Kurlancheek,  A. M. Lee,  M. S. Lee,  
 S. V. Levchenko,  Ching Yeh Lin,  D. Liotard,  R. C. Lochan,  I. Lotan,  
 P. E. Maslen,  N. Nair,  D. P. O'Neill,  D. Neuhauser,  E. Neuscamman,  
 C. M. Oana,  R. Olson,  B. Peters,  R. Peverati,  P. A. Pieniazek,  
 Y. M. Rhee,  J. Ritchie,  M. A. Rohrdanz,  E. Rosta,  N. J. Russ,  
 H. F. Schaefer III,  N. E. Schultz,  N. Shenvi,  A. C. Simmonett,  A. Sodt,  
 D. Stuck,  K. S. Thanthiriwatte,  V. Vanovschi,  Tao Wang,  A. Warshel,  
 C. F. Williams,  Q. Wu,  X. Xu,  W. Zhang

 Please cite Q-Chem as follows:
 Y. Shao et al., Mol. Phys. 113, 184-215 (2015)
 DOI: 10.1080/00268976.2014.952696

 Q-Chem 5.0.2 for Intel X86 EM64T Linux

 Parts of Q-Chem use Armadillo 5.200.1 (Boston Tea Smuggler).
 http://arma.sourceforge.net/

 Q-Chem begins on Thu Feb  1 12:15:55 2018  


Host: 0

     Scratch files written to /home/jcartus/scratch/31_trifluorometOH-wat_mono1.dir//
 Using version located at /usr/local/qchem/bin/qchem

 Parallel job on  1  processors

Total Memory Limit in MB = 2000
Mega-Array Size in MB = 192

Checking the input file for inconsistencies... 	...done.
Finally everything over in PARseQInput

--------------------------------------------------------------
User input:
--------------------------------------------------------------
$rem
SCF_PRINT                     1
BASIS                         6-311++g**
SCF_SAVE_MATRICES             1
SCF_CONVERGENCE               5
SCF_FINAL_PRINT               1
METHOD                        hf
JOBTYPE                       sp
$end

$molecule
0 1
O    -0.822589646    0.130751992    -0.00467018
H    0.151322978    0.236946671    -0.005208468
C    -1.09449506    -1.17158663    -0.000235811
F    -2.408360005    -1.348046797    0.002362133
F    -0.590968467    -1.812045684    -1.074390844
F    -0.58752505    -1.805322781    1.076316471
$end


--------------------------------------------------------------
 ----------------------------------------------------------------
             Standard Nuclear Orientation (Angstroms)
    I     Atom           X                Y                Z
 ----------------------------------------------------------------
    1      O       1.2603236467    -0.5000011179     0.0011437397
    2      H       1.8731621431     0.2643367275     0.0013285872
    3      C       0.0158362195    -0.0295886206     0.0000346172
    4      F      -0.8389212281    -1.0428860055    -0.0020023462
    5      F      -0.2514373368     0.7378108326     1.0757663634
    6      F      -0.2486157277     0.7398756106    -1.0749513736
 ----------------------------------------------------------------
 Molecular Point Group                 C1    NOp =  1
 Largest Abelian Subgroup              C1    NOp =  1
 Nuclear Repulsion Energy =   205.8669608156 hartrees
 There are       21 alpha and       21 beta electrons
 Requested basis set is 6-311++G(d,p)
 There are 35 shells and 117 basis functions

 Total QAlloc Memory Limit   2000 MB
 Mega-Array Size       188 MB
 MEM_STATIC part       192 MB

finished with qalloc call

                       Distance Matrix (Angstroms)
             O (  1)   H (  2)   C (  3)   F (  4)   F (  5)
   H (  2)  0.979685
   C (  3)  1.330428  1.880440
   F (  4)  2.168309  3.010687  1.325664
   F (  5)  2.229891  2.427451  1.348160  2.162777
   F (  6)  2.229837  2.426202  1.348186  2.162850  2.150721

 Job number = 2, Threshold = 1.00E-08
Integral type ranges set in mkLRange.C for JobNum: 2  <1-21|1-21>
Symmetry turned off temporarily
 Using the largest function pair in Schwarz integrals
Total number of integrals generated =          137869
Symmetry turned back on
 A cutoff of  1.0D-08 yielded    590 shell pairs
 There are      6862 function pairs (      7477 Cartesian)
 Job number = 11, Threshold = 1.00E-08
Integral type ranges set in mkLRange.C for JobNum: 11  <1-21|22-22>
Total number of integrals generated =           44862
 Smallest overlap matrix eigenvalue = 1.56E-03
 Multipole matrices computed through 2nd order

 Scale SEOQF with 1.000000e-01/1.000000e-01/1.000000e-01

 Standard Electronic Orientation quadrupole field applied
 Nucleus-field energy     =     0.0000000002 hartrees
 ENuRep (before)= 205.8669608156
 ENucField = 0.0000000002
 ENuRep (after) = 205.8669608158
 Guess from superposition of atomic densities
 Warning:  Energy on first SCF cycle will be non-variational
 SAD guess density has 42.000000 electrons

 ==================================================
    GEN_SCFMAN: A general SCF calculation manager  
                                                   
    Authors:                                       
        -- Eric Jon Sundstrom 2008-2014            
        -- Paul Horn 2010-2015                     
        -- Yuezhi Mao 2012-                        
        -- Dmitri Zuev 2014                        
        -- Alec White 2015-                        
        -- David Stuck 2015                        
        -- Shaama M.S. 2015                        
        -- Shane Yost 2015-                         
        -- Joonho Lee 2016-                        
        -- David Small 2016-                       
        -- Daniel Levine 2016-                     
        -- Susi Lehtola 2017-                      
        -- Hugh Burton 2017-                       
 ==================================================
 Hartree-Fock
Finding J and K together
 Job number = 22, Threshold = 1.00E-08
Integral type ranges set in mkLRange.C for JobNum: 22  <1-21|1-21>
 MakeJK  time:  CPU       1.29 s  wall       1.35 s
 HF Exchange:              -43.85418665886765
 One-Electron:             -981.91836170576062
 Total Coulomb:            407.29683654227989
 Nuclear repulsion:        205.86696081578111
 A restricted SCF calculation will be
 performed using DIIS
 SCF converges when DIIS error is below 1.0e-05
 ---------------------------------------
  Cycle       Energy         DIIS error
 ---------------------------------------
Finding J and K together
 Job number = 22, Threshold = 1.00E-08
Integral type ranges set in mkLRange.C for JobNum: 22  <1-21|1-21>
 MakeJK  time:  CPU       3.08 s  wall       3.14 s
 HF Exchange:              -44.27363454586269
 One-Electron:             -980.90461193959629
 Total Coulomb:            407.69991525210173
 Nuclear repulsion:        205.86696081578111
    1    -412.6087510066      5.93e-02  
Finding J and K together
 Job number = 22, Threshold = 1.00E-08
Integral type ranges set in mkLRange.C for JobNum: 22  <1-21|1-21>
 MakeJK  time:  CPU       3.09 s  wall       3.16 s
 HF Exchange:              -43.83330182912650
 One-Electron:             -981.24389904026100
 Total Coulomb:            407.48128425652021
 Nuclear repulsion:        205.86696081578111
    2    -411.6113704176      1.10e-02  
Finding J and K together
 Job number = 22, Threshold = 1.00E-08
Integral type ranges set in mkLRange.C for JobNum: 22  <1-21|1-21>
 MakeJK  time:  CPU       3.06 s  wall       3.15 s
 HF Exchange:              -44.08129872117168
 One-Electron:             -981.80684245122336
 Total Coulomb:            408.25133716336808
 Nuclear repulsion:        205.86696081578111
    3    -411.7289557971      6.42e-03  
Finding J and K together
 Job number = 22, Threshold = 1.00E-08
Integral type ranges set in mkLRange.C for JobNum: 22  <1-21|1-21>
 MakeJK  time:  CPU       3.06 s  wall       3.12 s
 HF Exchange:              -44.05760175804006
 One-Electron:             -981.57751769323636
 Total Coulomb:            407.99739811250362
 Nuclear repulsion:        205.86696081578111
    4    -411.7698431932      6.68e-04  
Finding J and K together
 Job number = 22, Threshold = 1.00E-08
Integral type ranges set in mkLRange.C for JobNum: 22  <1-21|1-21>
 MakeJK  time:  CPU       3.04 s  wall       3.12 s
 HF Exchange:              -44.06924313960035
 One-Electron:             -981.66176843468304
 Total Coulomb:            408.09317400231095
 Nuclear repulsion:        205.86696081578111
    5    -411.7707605230      2.32e-04  
Finding J and K together
 Job number = 22, Threshold = 1.00E-08
Integral type ranges set in mkLRange.C for JobNum: 22  <1-21|1-21>
 MakeJK  time:  CPU       2.90 s  wall       2.95 s
 HF Exchange:              -44.06902973437592
 One-Electron:             -981.65607088147601
 Total Coulomb:            408.08725615229559
 Nuclear repulsion:        205.86696081578111
    6    -411.7708767562      5.06e-05  
Finding J and K together
 Job number = 22, Threshold = 1.00E-08
Integral type ranges set in mkLRange.C for JobNum: 22  <1-21|1-21>
 MakeJK  time:  CPU       3.04 s  wall       3.09 s
 HF Exchange:              -44.06905933946640
 One-Electron:             -981.65528209535694
 Total Coulomb:            408.08649637516828
 Nuclear repulsion:        205.86696081578111
    7    -411.7708836478      1.74e-05  
    8    -411.7708842439      4.96e-06  Convergence criterion met
 ---------------------------------------
 SCF time:   CPU 22.99s  wall 24.00s 
 Total energy in the final basis set =     -411.7708842439
 HF Exchange:              -44.06905933946640
 One-Electron:             -981.65528209535694
 Total Coulomb:            408.08649637516828
 Nuclear repulsion:        205.86696081578111
Wall  1 = 24
Clock 1 = 23.05253601074219
 ==================================================
                  Done GEN_SCFMAN                  
 ==================================================

Symmetry turned off temporarily

 --------------------------------------------------------------

                    Orbital Energies (a.u.)
 --------------------------------------------------------------

 Alpha MOs
 -- Occupied --
-26.358 -26.355 -26.355 -20.649 -11.579  -1.761  -1.658  -1.650
 -1.474  -0.984  -0.878  -0.854  -0.846  -0.741  -0.731  -0.702
 -0.678  -0.677  -0.663  -0.635  -0.583
 -- Virtual --
  0.038   0.101   0.105   0.107   0.137   0.210   0.250   0.265
  0.295   0.310   0.334   0.352   0.383   0.385   0.393   0.402
  0.406   0.418   0.422   0.437   0.453   0.486   0.498   0.522
  0.533   0.579   0.641   0.811   0.821   0.843   1.120   1.190
  1.225   1.231   1.385   1.410   1.529   1.582   1.596   1.625
  1.644   1.666   1.672   1.686   1.706   1.709   1.786   1.913
  2.056   2.064   2.090   2.172   2.226   2.301   2.402   2.844
  3.144   3.223   3.238   3.415   3.477   3.632   4.025   4.128
  4.129   4.160   4.162   4.174   4.189   4.196   4.218   4.362
  4.397   4.563   4.622   4.655   4.941   5.348   5.377   5.519
  5.889   6.179   6.865   6.888   6.946   6.952   6.957   6.976
  7.125   7.331   7.393  24.595  51.548  68.705  68.711  68.770
 --------------------------------------------------------------

          Ground-State Mulliken Net Atomic Charges

     Atom                 Charge (a.u.)
  ----------------------------------------
      1 O                    -0.341010
      2 H                     0.302442
      3 C                     0.735699
      4 F                    -0.208919
      5 F                    -0.244055
      6 F                    -0.244157
  ----------------------------------------
  Sum of atomic charges =     0.000000

 -----------------------------------------------------------------
                    Cartesian Multipole Moments
 -----------------------------------------------------------------
    Charge (ESU x 10^10)
                 0.0000
    Dipole Moment (Debye)
         X       2.0879      Y       0.9910      Z       0.0012
       Tot       2.3112
    Quadrupole Moments (Debye-Ang)
        XX     -22.5786     XY       2.4718     YY     -27.9613
        XZ       0.0038     YZ       0.0021     ZZ     -28.0232
    Octopole Moments (Debye-Ang^2)
       XXX       5.8113    XXY       6.0219    XYY      -0.8216
       YYY       2.4292    XXZ       0.0043    XYZ       0.0077
       YYZ       0.0038    XZZ      -1.1703    YZZ      -1.2909
       ZZZ      -0.0086
    Hexadecapole Moments (Debye-Ang^3)
      XXXX     -80.4194   XXXY       9.8443   XXYY     -33.2253
      XYYY       3.3660   YYYY     -91.3536   XXXZ       0.0123
      XXYZ       0.0051   XYYZ      -0.0018   YYYZ       0.0040
      XXZZ     -32.2749   XYZZ       1.3810   YYZZ     -30.2010
      XZZZ      -0.0031   YZZZ       0.0036   ZZZZ     -87.7603
 -----------------------------------------------------------------
 Mayer SCF Bond Order, atomic valence on the diagonal:

            1           2           3           4           5           6
    1   2.0800924   0.9085309   1.1446423  -0.0133567   0.0201762   0.0200997
    2   0.9085309   0.9167829   0.0254888   0.0143961  -0.0158374  -0.0157955
    3   1.1446423   0.0254888   4.2290050   1.0218624   1.0185602   1.0184513
    4  -0.0133567   0.0143961   1.0218624   1.0950961   0.0361041   0.0360903
    5   0.0201762  -0.0158374   1.0185602   0.0361041   1.0784075   0.0194044
    6   0.0200997  -0.0157955   1.0184513   0.0360903   0.0194044   1.0782502


 JobOver = TRUE
Archival summary:
1\1\qciep03\SP\HF\BasisUnspecified\3111\jcartus\ThuFeb112:16:192018ThuFeb112:16:192018\0\\#,HF,BasisUnspecified,\\0,1\C\F,1,1.32566\O,1,1.33043,2,109.443\H,3,0.979685,1,108.016,2,179.919,0\F,1,1.34816,2,107.968,3,-123.015,0\F,1,1.34819,2,107.972,3,123.01,0\\HF=-411.770884\\@

 Total job time:  23.93s(wall), 23.35s(cpu) 
 Thu Feb  1 12:16:19 2018

        *************************************************************
        *                                                           *
        *  Thank you very much for using Q-Chem.  Have a nice day.  *
        *                                                           *
        *************************************************************


*** MISSION COMPLETED -- STARFLEET OUT ***

0 sent ACK to 0 
now end server 0 ... 
