Process 0 of 1 is on qciep03 - thread support 0
initial socket setup ...start
initial socket setup ...done 
now start server 0 ... 
qciep03.tugraz.at 127.0.1
Q-Chem Developer Version! Running on 127.0.1.*
                  Welcome to Q-Chem
     A Quantum Leap Into The Future Of Chemistry


 Q-Chem 5.0, Q-Chem, Inc., Pleasanton, CA (2017)

 Yihan Shao,  Zhengting Gan,  E. Epifanovsky,  A. T. B. Gilbert,  M. Wormit,  
 J. Kussmann,  A. W. Lange,  A. Behn,  Jia Deng,  Xintian Feng,  D. Ghosh,  
 M. Goldey,  P. R. Horn,  L. D. Jacobson,  I. Kaliman,  T. Kus,  A. Landau,  
 Jie Liu,  E. I. Proynov,  R. M. Richard,  R. P. Steele,  E. J. Sundstrom,  
 H. L. Woodcock III,  P. M. Zimmerman,  D. Zuev,  B. Albrecht,  E. Alguire,  
 S. A. Baeppler,  D. Barton,  Z. Benda,  Y. A. Bernard,  E. J. Berquist,  
 K. B. Bravaya,  H. Burton,  D. Casanova,  Chun-Min Chang,  Yunqing Chen,  
 A. Chien,  K. D. Closser,  M. P. Coons,  S. Dasgupta,  A. L. Dempwolff,  
 M. Diedenhofen,  Hainam Do,  R. G. Edgar,  Po-Tung Fang,  S. Fatehi,  
 Qingguo Feng,  J. Fosso-Tande,  Qinghui Ge,  A. Ghysels,  G. Gidofalvi,  
 J. Gomes,  J. Gonthier,  A. Gunina,  M. W. D. Hanson-Heine,  
 P. H. P. Harbach,  A. W. Hauser,  J. E. Herr,  E. G. Hohenstein,  
 Z. C. Holden,  Kerwin Hui,  T.-C. Jagau,  Hyunjun Ji,  B. Kaduk,  
 K. Khistyaev,  Jaehoon Kim,  P. Klunzinger,  K. Koh,  D. Kosenkov,  
 L. Koulias,  T. Kowalczyk,  C. M. Krauter,  A. Kunitsa,  Ka Un Lao,  
 A. Laurent,  K. V. Lawler,  Joonho Lee,  D. Lefrancois,  S. Lehtola,  
 D. S. Levine,  Yi-Pei Li,  You-Sheng Lin,  Fenglai Liu,  E. Livshits,  
 A. Luenser,  P. Manohar,  E. Mansoor,  S. F. Manzer,  Shan-Ping Mao,  
 Yuezhi Mao,  N. Mardirossian,  A. V. Marenich,  T. Markovich,  
 L. A. Martinez-Martinez,  S. A. Maurer,  N. J. Mayhall,  S. C. McKenzie,  
 J.-M. Mewes,  A. F. Morrison,  J. W. Mullinax,  K. Nanda,  
 T. S. Nguyen-Beck,  R. Olivares-Amaya,  J. A. Parkhill,  T. M. Perrine,  
 F. Plasser,  S. Prager,  A. Prociuk,  E. Ramos,  D. R. Rehn,  F. Rob,  
 M. Schneider,  N. Sergueev,  S. M. Sharada,  S. Sharma,  D. W. Small,  
 T. Stauch,  T. Stein,  Yu-Chuan Su,  A. J. W. Thom,  A. Tkatchenko,  
 T. Tsuchimochi,  L. Vogt,  O. Vydrov,  M. A. Watson,  J. Wenzel,  
 M. de Wergifosse,  T. A. Wesolowski,  A. White,  J. Witte,  A. Yamada,  
 Jun Yang,  K. Yao,  S. Yeganeh,  S. R. Yost,  Zhi-Qiang You,  A. Zech,  
 Igor Ying Zhang,  Xing Zhang,  Yan Zhao,  Ying Zhu,  B. R. Brooks,  
 G. K. L. Chan,  C. J. Cramer,  M. S. Gordon,  W. J. Hehre,  A. Klamt,  
 M. W. Schmidt,  C. D. Sherrill,  D. G. Truhlar,  A. Aspuru-Guzik,  R. Baer,  
 A. T. Bell,  N. A. Besley,  Jeng-Da Chai,  R. A. DiStasio Jr.,  A. Dreuw,  
 B. D. Dunietz,  T. R. Furlani,  Chao-Ping Hsu,  Yousung Jung,  Jing Kong,  
 D. S. Lambrecht,  WanZhen Liang,  C. Ochsenfeld,  V. A. Rassolov,  
 L. V. Slipchenko,  J. E. Subotnik,  T. Van Voorhis,  J. M. Herbert,  
 A. I. Krylov,  P. M. W. Gill,  M. Head-Gordon

 Contributors to earlier versions of Q-Chem not listed above: 
 R. D. Adamson,  B. Austin,  J. Baker,  G. J. O. Beran,  K. Brandhorst,  
 S. T. Brown,  E. F. C. Byrd,  A. K. Chakraborty,  C.-L. Cheng,  
 Siu Hung Chien,  D. M. Chipman,  D. L. Crittenden,  H. Dachsel,  
 R. J. Doerksen,  A. D. Dutoi,  L. Fusti-Molnar,  W. A. Goddard III,  
 A. Golubeva-Zadorozhnaya,  S. R. Gwaltney,  G. Hawkins,  A. Heyden,  
 S. Hirata,  G. Kedziora,  F. J. Keil,  C. Kelley,  Jihan Kim,  R. A. King,  
 R. Z. Khaliullin,  P. P. Korambath,  W. Kurlancheek,  A. M. Lee,  M. S. Lee,  
 S. V. Levchenko,  Ching Yeh Lin,  D. Liotard,  R. C. Lochan,  I. Lotan,  
 P. E. Maslen,  N. Nair,  D. P. O'Neill,  D. Neuhauser,  E. Neuscamman,  
 C. M. Oana,  R. Olson,  B. Peters,  R. Peverati,  P. A. Pieniazek,  
 Y. M. Rhee,  J. Ritchie,  M. A. Rohrdanz,  E. Rosta,  N. J. Russ,  
 H. F. Schaefer III,  N. E. Schultz,  N. Shenvi,  A. C. Simmonett,  A. Sodt,  
 D. Stuck,  K. S. Thanthiriwatte,  V. Vanovschi,  Tao Wang,  A. Warshel,  
 C. F. Williams,  Q. Wu,  X. Xu,  W. Zhang

 Please cite Q-Chem as follows:
 Y. Shao et al., Mol. Phys. 113, 184-215 (2015)
 DOI: 10.1080/00268976.2014.952696

 Q-Chem 5.0.2 for Intel X86 EM64T Linux

 Parts of Q-Chem use Armadillo 5.200.1 (Boston Tea Smuggler).
 http://arma.sourceforge.net/

 Q-Chem begins on Thu Feb  1 12:05:15 2018  


Host: 0

     Scratch files written to /home/jcartus/scratch/11_benF3-ben_mono2.dir//
 Using version located at /usr/local/qchem/bin/qchem

 Parallel job on  1  processors

Total Memory Limit in MB = 2000
Mega-Array Size in MB = 192

Checking the input file for inconsistencies... 	...done.
Finally everything over in PARseQInput

--------------------------------------------------------------
User input:
--------------------------------------------------------------
$rem
SCF_PRINT                     1
BASIS                         6-311++g**
SCF_SAVE_MATRICES             1
SCF_CONVERGENCE               5
SCF_FINAL_PRINT               1
METHOD                        hf
JOBTYPE                       sp
$end

$molecule
0 1
H    -1.982727901    -2.229710809    3.302751592
H    -2.449489395    0.193673563    3.123490546
C    0.127581029    -1.959602814    3.614622471
C    -1.175738052    -1.515819137    3.395968839
C    -1.43842973    -0.150603905    3.294462135
C    -0.398879384    0.770556176    3.412257913
C    0.904159726    0.325967381    3.630272076
C    1.167830304    -1.039033251    3.73196994
H    -0.602955098    1.829871089    3.332690746
H    1.711481364    1.040279331    3.720124956
H    0.331418327    -3.018852194    3.696210666
H    2.179355046    -1.382919174    3.899512705
$end


--------------------------------------------------------------
 ----------------------------------------------------------------
             Standard Nuclear Orientation (Angstroms)
    I     Atom           X                Y                Z
 ----------------------------------------------------------------
    1      H       2.1052137111    -1.3028770965     0.0021607073
    2      H       2.1812530404     1.1703818597     0.0012747272
    3      C      -0.0431560476    -1.3930346789     0.0000290303
    4      C       1.1853686659    -0.7341560773    -0.0000497057
    5      C       1.2280264790     0.6591505890     0.0000035695
    6      C       0.0431641939     1.3934377216    -0.0006553951
    7      C      -1.1848624979     0.7338543356     0.0000484589
    8      C      -1.2285383519    -0.6594093737    -0.0000556879
    9      H       0.0766162759     2.4746436388     0.0001439135
   10      H      -2.1046260619     1.3031670860     0.0011919836
   11      H      -0.0766720304    -2.4742766378    -0.0028050532
   12      H      -2.1817995837    -1.1700939480     0.0021121018
 ----------------------------------------------------------------
 Molecular Point Group                 C1    NOp =  1
 Largest Abelian Subgroup              C1    NOp =  1
 Nuclear Repulsion Energy =   203.6651741487 hartrees
 There are       21 alpha and       21 beta electrons
 Requested basis set is 6-311++G(d,p)
 There are 66 shells and 174 basis functions

 Total QAlloc Memory Limit   2000 MB
 Mega-Array Size       188 MB
 MEM_STATIC part       192 MB

finished with qalloc call

                       Distance Matrix (Angstroms)
             H (  1)   H (  2)   C (  3)   C (  4)   C (  5)   C (  6)
   H (  2)  2.474428
   C (  3)  2.150262  3.393980
   C (  4)  1.081464  2.149198  1.394057
   C (  5)  2.149189  1.081665  2.413994  1.393960
   C (  6)  3.394432  2.149693  2.787809  2.414806  1.393943
   C (  7)  3.869481  3.394303  2.413949  2.788019  2.414045  1.393951
   C (  8)  3.395285  3.869731  1.394036  2.415064  2.788066  2.414831
   H (  9)  4.287759  2.476004  3.869532  3.394956  2.149828  1.081724
   H ( 10)  4.951184  4.287936  3.393989  3.869723  3.394309  2.149687
   H ( 11)  2.476455  4.287398  1.081765  2.149599  3.394203  3.869571
   H ( 12)  4.289069  4.951167  2.150233  3.395271  3.869503  3.394432
             C (  7)   C (  8)   H (  9)   H ( 10)   H ( 11)
   C (  8)  1.393948
   H (  9)  2.149808  3.394955
   H ( 10)  1.081704  2.149241  2.475919
   H ( 11)  3.394142  2.149546  4.951295  4.287388
   H ( 12)  2.149164  1.081439  4.287722  2.474465  2.476384

 Job number = 2, Threshold = 1.00E-08
Integral type ranges set in mkLRange.C for JobNum: 2  <1-21|1-21>
Symmetry turned off temporarily
 Using the largest function pair in Schwarz integrals
Total number of integrals generated =          233997
Symmetry turned back on
 A cutoff of  1.0D-08 yielded   2055 shell pairs
 There are     14694 function pairs (     15765 Cartesian)
 Job number = 11, Threshold = 1.00E-08
Integral type ranges set in mkLRange.C for JobNum: 11  <1-21|22-22>
Total number of integrals generated =          189180
 Smallest overlap matrix eigenvalue = 1.07E-06

 Q-Chem warning in module /usr/local/qchem/stvman/mkSTV.C, line 295:

 Overlap eigenvalue is smaller than square root of threshold

 Multipole matrices computed through 2nd order

 Scale SEOQF with 1.000000e-01/1.000000e-01/1.000000e-01

 Standard Electronic Orientation quadrupole field applied
 Nucleus-field energy     =     0.0000000057 hartrees
 ENuRep (before)= 203.6651741487
 ENucField = 0.0000000057
 ENuRep (after) = 203.6651741544
 Guess from superposition of atomic densities
 Warning:  Energy on first SCF cycle will be non-variational
 SAD guess density has 42.000000 electrons

 ==================================================
    GEN_SCFMAN: A general SCF calculation manager  
                                                   
    Authors:                                       
        -- Eric Jon Sundstrom 2008-2014            
        -- Paul Horn 2010-2015                     
        -- Yuezhi Mao 2012-                        
        -- Dmitri Zuev 2014                        
        -- Alec White 2015-                        
        -- David Stuck 2015                        
        -- Shaama M.S. 2015                        
        -- Shane Yost 2015-                         
        -- Joonho Lee 2016-                        
        -- David Small 2016-                       
        -- Daniel Levine 2016-                     
        -- Susi Lehtola 2017-                      
        -- Hugh Burton 2017-                       
 ==================================================
 Hartree-Fock
Finding J and K together
 Job number = 22, Threshold = 1.00E-08
Integral type ranges set in mkLRange.C for JobNum: 22  <1-21|1-21>
 MakeJK  time:  CPU       4.43 s  wall       4.44 s
 HF Exchange:              -34.14981928282175
 One-Electron:             -709.28854390360141
 Total Coulomb:            306.52207784690773
 Nuclear repulsion:        203.66517415441012
 A restricted SCF calculation will be
 performed using DIIS
 SCF converges when DIIS error is below 1.0e-05
 ---------------------------------------
  Cycle       Energy         DIIS error
 ---------------------------------------
Finding J and K together
 Job number = 22, Threshold = 1.00E-08
Integral type ranges set in mkLRange.C for JobNum: 22  <1-21|1-21>
 MakeJK  time:  CPU      16.65 s  wall      16.69 s
 HF Exchange:              -33.16672255380870
 One-Electron:             -714.09378374388825
 Total Coulomb:            312.90319313070029
 Nuclear repulsion:        203.66517415441012
    1    -233.2511111851      5.18e-02  
Finding J and K together
 Job number = 22, Threshold = 1.00E-08
Integral type ranges set in mkLRange.C for JobNum: 22  <1-21|1-21>
 MakeJK  time:  CPU      16.49 s  wall      16.56 s
 HF Exchange:              -33.21105174799437
 One-Electron:             -713.30102709842663
 Total Coulomb:            312.09554069204108
 Nuclear repulsion:        203.66517415441012
    2    -230.6921390126      3.32e-03  
Finding J and K together
 Job number = 22, Threshold = 1.00E-08
Integral type ranges set in mkLRange.C for JobNum: 22  <1-21|1-21>
 MakeJK  time:  CPU      13.92 s  wall      14.00 s
 HF Exchange:              -33.26632223660929
 One-Electron:             -713.94597146976207
 Total Coulomb:            312.79130408680663
 Nuclear repulsion:        203.66517415441012
    3    -230.7513640000      9.06e-04  
Finding J and K together
 Job number = 22, Threshold = 1.00E-08
Integral type ranges set in mkLRange.C for JobNum: 22  <1-21|1-21>
 MakeJK  time:  CPU      16.14 s  wall      16.56 s
 HF Exchange:              -33.25223879146319
 One-Electron:             -713.65554938016658
 Total Coulomb:            312.48629887354542
 Nuclear repulsion:        203.66517415441012
    4    -230.7558154652      3.48e-04  
Finding J and K together
 Job number = 22, Threshold = 1.00E-08
Integral type ranges set in mkLRange.C for JobNum: 22  <1-21|1-21>
 MakeJK  time:  CPU      16.52 s  wall      16.82 s
 HF Exchange:              -33.25328918464466
 One-Electron:             -713.66751982179744
 Total Coulomb:            312.49930907012345
 Nuclear repulsion:        203.66517415441012
    5    -230.7563151437      3.45e-05  
    6    -230.7563257819      6.39e-06  Convergence criterion met
 ---------------------------------------
 SCF time:   CPU 85.08s  wall 86.00s 
 Total energy in the final basis set =     -230.7563257819
 HF Exchange:              -33.25328918464466
 One-Electron:             -713.66751982179744
 Total Coulomb:            312.49930907012345
 Nuclear repulsion:        203.66517415441012
Wall  1 = 86
Clock 1 = 85.22712707519531
 ==================================================
                  Done GEN_SCFMAN                  
 ==================================================

Symmetry turned off temporarily

 --------------------------------------------------------------

                    Orbital Energies (a.u.)
 --------------------------------------------------------------

 Alpha MOs
 -- Occupied --
-11.238 -11.238 -11.238 -11.237 -11.237 -11.236  -1.153  -1.017
 -1.017  -0.826  -0.826  -0.712  -0.645  -0.621  -0.590  -0.590
 -0.502  -0.496  -0.496  -0.337  -0.337
 -- Virtual --
  0.042   0.049   0.049   0.066   0.066   0.088   0.109   0.109
  0.129   0.153   0.153   0.158   0.163   0.181   0.181   0.183
  0.183   0.193   0.209   0.212   0.212   0.216   0.216   0.218
  0.228   0.228   0.250   0.250   0.289   0.289   0.303   0.333
  0.335   0.369   0.409   0.409   0.430   0.430   0.441   0.498
  0.499   0.509   0.509   0.604   0.610   0.715   0.723   0.723
  0.729   0.751   0.751   0.751   0.758   0.758   0.797   0.820
  0.820   0.886   0.940   0.940   0.952   0.952   0.976   1.016
  1.016   1.017   1.059   1.059   1.107   1.122   1.122   1.130
  1.170   1.219   1.219   1.249   1.324   1.324   1.392   1.392
  1.524   1.557   1.711   1.786   1.787   1.796   1.826   1.845
  1.845   1.908   1.908   1.933   1.934   1.992   2.056   2.056
  2.104   2.104   2.131   2.237   2.237   2.239   2.248   2.248
  2.298   2.347   2.347   2.380   2.380   2.640   2.663   2.744
  2.744   2.746   2.817   2.817   2.963   2.963   2.988   2.995
  3.022   3.022   3.045   3.045   3.058   3.088   3.192   3.192
  3.267   3.293   3.293   3.330   3.330   3.482   3.549   3.776
  3.776   3.908   3.908   3.922   4.082   4.410   4.410   4.500
  4.576   4.576   5.279  24.752  25.139  25.139  25.261  25.261
 25.372
 --------------------------------------------------------------

          Ground-State Mulliken Net Atomic Charges

     Atom                 Charge (a.u.)
  ----------------------------------------
      1 H                     0.192639
      2 H                     0.192587
      3 C                    -0.190302
      4 C                    -0.195431
      5 C                    -0.189656
      6 C                    -0.195346
      7 C                    -0.189601
      8 C                    -0.195447
      9 H                     0.192698
     10 H                     0.192582
     11 H                     0.192632
     12 H                     0.192644
  ----------------------------------------
  Sum of atomic charges =    -0.000000

 -----------------------------------------------------------------
                    Cartesian Multipole Moments
 -----------------------------------------------------------------
    Charge (ESU x 10^10)
                -0.0000
    Dipole Moment (Debye)
         X      -0.0000      Y       0.0003      Z       0.0035
       Tot       0.0035
    Quadrupole Moments (Debye-Ang)
        XX     -31.9128     XY      -0.0002     YY     -31.9256
        XZ       0.0005     YZ       0.0061     ZZ     -41.3077
    Octopole Moments (Debye-Ang^2)
       XXX      -0.0008    XXY      -0.0135    XYY       0.0008
       YYY       0.0157    XXZ       0.0371    XYZ      -0.0011
       YYZ      -0.0042    XZZ      -0.0000    YZZ       0.0003
       ZZZ       0.0066
    Hexadecapole Moments (Debye-Ang^3)
      XXXX    -270.4016   XXXY      -0.0031   XXYY     -90.1652
      XYYY       0.0010   YYYY    -270.4386   XXXZ       0.0012
      XXYZ      -0.0112   XYYZ       0.0035   YYYZ       0.0649
      XXZZ     -66.0768   XYZZ       0.0001   YYZZ     -66.0678
      XZZZ       0.0008   YZZZ       0.0095   ZZZZ     -52.1583
 -----------------------------------------------------------------
 Mayer SCF Bond Order, atomic valence on the diagonal:

            1           2           3           4           5           6
    1   0.9410669   0.0108019   0.0919344   0.7780018   0.0914895  -0.0267739
    2   0.0108019   0.9407055  -0.0262660   0.0903283   0.7794498   0.0906461
    3   0.0919344  -0.0262660   4.4312280   1.8304520  -0.0993400   0.0481450
    4   0.7780018   0.0903283   1.8304520   4.4349128   1.8296554  -0.0945885
    5   0.0914895   0.7794498  -0.0993400   1.8296554   4.4304604   1.8307542
    6  -0.0267739   0.0906461   0.0481450  -0.0945885   1.8307542   4.4358586
    7   0.0103466  -0.0262862  -0.0994257   0.0484150  -0.0995536   1.8307912
    8  -0.0267438   0.0099733   1.8303773  -0.0943236   0.0482847  -0.0945063
    9   0.0006010   0.0108279   0.0103763  -0.0268373   0.0919721   0.7775622
   10  -0.0000004   0.0006151  -0.0262599   0.0099713  -0.0262799   0.0906108
   11   0.0108093   0.0006157   0.7792795   0.0905878  -0.0263202   0.0099993
   12   0.0006006  -0.0000004   0.0919550  -0.0267493   0.0103485  -0.0267815
            7           8           9          10          11          12
    1   0.0103466  -0.0267438   0.0006010  -0.0000004   0.0108093   0.0006006
    2  -0.0262862   0.0099733   0.0108279   0.0006151   0.0006157  -0.0000004
    3  -0.0994257   1.8303773   0.0103763  -0.0262599   0.7792795   0.0919550
    4   0.0484150  -0.0943236  -0.0268373   0.0099713   0.0905878  -0.0267493
    5  -0.0995536   0.0482847   0.0919721  -0.0262799  -0.0263202   0.0103485
    6   1.8307912  -0.0945063   0.7775622   0.0906108   0.0099993  -0.0267815
    7   4.4305994   1.8296715   0.0919602   0.7794817  -0.0263217   0.0915206
    8   1.8296715   4.4347479  -0.0268384   0.0903187   0.0905703   0.7779641
    9   0.0919602  -0.0268384   0.9410517   0.0108269  -0.0000001   0.0006007
   10   0.7794817   0.0903187   0.0108269   0.9407028   0.0006160   0.0108023
   11  -0.0263217   0.0905703  -0.0000001   0.0006160   0.9406459   0.0108099
   12   0.0915206   0.7779641   0.0006007   0.0108023   0.0108099   0.9410706


 JobOver = TRUE
Archival summary:
1\1\qciep03\SP\HF\BasisUnspecified\66\jcartus\ThuFeb112:06:412018ThuFeb112:06:412018\0\\#,HF,BasisUnspecified,\\0,1\C\H,1,1.0817\C,1,1.39395,2,119.961\H,3,1.08144,1,119.974,2,-0.0676088,0\C,1,1.39395,2,120.003,3,-179.968,0\H,5,1.08172,1,120.013,2,0.012367,0\C,5,1.39394,1,119.972,2,179.899,0\H,7,1.08167,5,120.007,1,-179.889,0\C,7,1.39396,5,120.034,1,0.0672056,0\H,9,1.08146,7,119.974,5,-179.896,0\C,3,1.39404,1,119.958,2,-179.926,0\H,11,1.08177,3,119.978,1,-179.832,0\\HF=-230.756326\\@

 Total job time:  86.87s(wall), 85.87s(cpu) 
 Thu Feb  1 12:06:41 2018

        *************************************************************
        *                                                           *
        *  Thank you very much for using Q-Chem.  Have a nice day.  *
        *                                                           *
        *************************************************************


*** MISSION COMPLETED -- STARFLEET OUT ***

0 sent ACK to 0 
now end server 0 ... 
