Process 0 of 1 is on qciep03 - thread support 0
initial socket setup ...start
initial socket setup ...done 
now start server 0 ... 
qciep03.tugraz.at 127.0.1
Q-Chem Developer Version! Running on 127.0.1.*
                  Welcome to Q-Chem
     A Quantum Leap Into The Future Of Chemistry


 Q-Chem 5.0, Q-Chem, Inc., Pleasanton, CA (2017)

 Yihan Shao,  Zhengting Gan,  E. Epifanovsky,  A. T. B. Gilbert,  M. Wormit,  
 J. Kussmann,  A. W. Lange,  A. Behn,  Jia Deng,  Xintian Feng,  D. Ghosh,  
 M. Goldey,  P. R. Horn,  L. D. Jacobson,  I. Kaliman,  T. Kus,  A. Landau,  
 Jie Liu,  E. I. Proynov,  R. M. Richard,  R. P. Steele,  E. J. Sundstrom,  
 H. L. Woodcock III,  P. M. Zimmerman,  D. Zuev,  B. Albrecht,  E. Alguire,  
 S. A. Baeppler,  D. Barton,  Z. Benda,  Y. A. Bernard,  E. J. Berquist,  
 K. B. Bravaya,  H. Burton,  D. Casanova,  Chun-Min Chang,  Yunqing Chen,  
 A. Chien,  K. D. Closser,  M. P. Coons,  S. Dasgupta,  A. L. Dempwolff,  
 M. Diedenhofen,  Hainam Do,  R. G. Edgar,  Po-Tung Fang,  S. Fatehi,  
 Qingguo Feng,  J. Fosso-Tande,  Qinghui Ge,  A. Ghysels,  G. Gidofalvi,  
 J. Gomes,  J. Gonthier,  A. Gunina,  M. W. D. Hanson-Heine,  
 P. H. P. Harbach,  A. W. Hauser,  J. E. Herr,  E. G. Hohenstein,  
 Z. C. Holden,  Kerwin Hui,  T.-C. Jagau,  Hyunjun Ji,  B. Kaduk,  
 K. Khistyaev,  Jaehoon Kim,  P. Klunzinger,  K. Koh,  D. Kosenkov,  
 L. Koulias,  T. Kowalczyk,  C. M. Krauter,  A. Kunitsa,  Ka Un Lao,  
 A. Laurent,  K. V. Lawler,  Joonho Lee,  D. Lefrancois,  S. Lehtola,  
 D. S. Levine,  Yi-Pei Li,  You-Sheng Lin,  Fenglai Liu,  E. Livshits,  
 A. Luenser,  P. Manohar,  E. Mansoor,  S. F. Manzer,  Shan-Ping Mao,  
 Yuezhi Mao,  N. Mardirossian,  A. V. Marenich,  T. Markovich,  
 L. A. Martinez-Martinez,  S. A. Maurer,  N. J. Mayhall,  S. C. McKenzie,  
 J.-M. Mewes,  A. F. Morrison,  J. W. Mullinax,  K. Nanda,  
 T. S. Nguyen-Beck,  R. Olivares-Amaya,  J. A. Parkhill,  T. M. Perrine,  
 F. Plasser,  S. Prager,  A. Prociuk,  E. Ramos,  D. R. Rehn,  F. Rob,  
 M. Schneider,  N. Sergueev,  S. M. Sharada,  S. Sharma,  D. W. Small,  
 T. Stauch,  T. Stein,  Yu-Chuan Su,  A. J. W. Thom,  A. Tkatchenko,  
 T. Tsuchimochi,  L. Vogt,  O. Vydrov,  M. A. Watson,  J. Wenzel,  
 M. de Wergifosse,  T. A. Wesolowski,  A. White,  J. Witte,  A. Yamada,  
 Jun Yang,  K. Yao,  S. Yeganeh,  S. R. Yost,  Zhi-Qiang You,  A. Zech,  
 Igor Ying Zhang,  Xing Zhang,  Yan Zhao,  Ying Zhu,  B. R. Brooks,  
 G. K. L. Chan,  C. J. Cramer,  M. S. Gordon,  W. J. Hehre,  A. Klamt,  
 M. W. Schmidt,  C. D. Sherrill,  D. G. Truhlar,  A. Aspuru-Guzik,  R. Baer,  
 A. T. Bell,  N. A. Besley,  Jeng-Da Chai,  R. A. DiStasio Jr.,  A. Dreuw,  
 B. D. Dunietz,  T. R. Furlani,  Chao-Ping Hsu,  Yousung Jung,  Jing Kong,  
 D. S. Lambrecht,  WanZhen Liang,  C. Ochsenfeld,  V. A. Rassolov,  
 L. V. Slipchenko,  J. E. Subotnik,  T. Van Voorhis,  J. M. Herbert,  
 A. I. Krylov,  P. M. W. Gill,  M. Head-Gordon

 Contributors to earlier versions of Q-Chem not listed above: 
 R. D. Adamson,  B. Austin,  J. Baker,  G. J. O. Beran,  K. Brandhorst,  
 S. T. Brown,  E. F. C. Byrd,  A. K. Chakraborty,  C.-L. Cheng,  
 Siu Hung Chien,  D. M. Chipman,  D. L. Crittenden,  H. Dachsel,  
 R. J. Doerksen,  A. D. Dutoi,  L. Fusti-Molnar,  W. A. Goddard III,  
 A. Golubeva-Zadorozhnaya,  S. R. Gwaltney,  G. Hawkins,  A. Heyden,  
 S. Hirata,  G. Kedziora,  F. J. Keil,  C. Kelley,  Jihan Kim,  R. A. King,  
 R. Z. Khaliullin,  P. P. Korambath,  W. Kurlancheek,  A. M. Lee,  M. S. Lee,  
 S. V. Levchenko,  Ching Yeh Lin,  D. Liotard,  R. C. Lochan,  I. Lotan,  
 P. E. Maslen,  N. Nair,  D. P. O'Neill,  D. Neuhauser,  E. Neuscamman,  
 C. M. Oana,  R. Olson,  B. Peters,  R. Peverati,  P. A. Pieniazek,  
 Y. M. Rhee,  J. Ritchie,  M. A. Rohrdanz,  E. Rosta,  N. J. Russ,  
 H. F. Schaefer III,  N. E. Schultz,  N. Shenvi,  A. C. Simmonett,  A. Sodt,  
 D. Stuck,  K. S. Thanthiriwatte,  V. Vanovschi,  Tao Wang,  A. Warshel,  
 C. F. Williams,  Q. Wu,  X. Xu,  W. Zhang

 Please cite Q-Chem as follows:
 Y. Shao et al., Mol. Phys. 113, 184-215 (2015)
 DOI: 10.1080/00268976.2014.952696

 Q-Chem 5.0.2 for Intel X86 EM64T Linux

 Parts of Q-Chem use Armadillo 5.200.1 (Boston Tea Smuggler).
 http://arma.sourceforge.net/

 Q-Chem begins on Thu Feb  1 12:14:11 2018  


Host: 0

     Scratch files written to /home/jcartus/scratch/09_fluoromethane-fluoromethane_mono1.dir//
 Using version located at /usr/local/qchem/bin/qchem

 Parallel job on  1  processors

Total Memory Limit in MB = 2000
Mega-Array Size in MB = 192

Checking the input file for inconsistencies... 	...done.
Finally everything over in PARseQInput

--------------------------------------------------------------
User input:
--------------------------------------------------------------
$rem
SCF_PRINT                     1
BASIS                         6-311++g**
SCF_SAVE_MATRICES             1
SCF_CONVERGENCE               5
SCF_FINAL_PRINT               1
METHOD                        hf
JOBTYPE                       sp
$end

$molecule
0 1
C    0.250211388    -0.141261283    2.278305952
F    0.055015573    -0.060688554    0.911538424
H    1.18931025    0.342978795    2.531275149
H    0.282891774    -1.187166859    2.570525524
H    -0.571443596    0.358513497    2.783864006
$end


--------------------------------------------------------------
 ----------------------------------------------------------------
             Standard Nuclear Orientation (Angstroms)
    I     Atom           X                Y                Z
 ----------------------------------------------------------------
    1      C      -0.6324246055     0.0000145863    -0.0000042038
    2      F       0.7505601541    -0.0000116229     0.0000128992
    3      H      -0.9867573176    -0.4216172003    -0.9365208914
    4      H      -0.9867464741     1.0218782133     0.1030952680
    5      H      -0.9869899622    -0.6002439245     0.8333347533
 ----------------------------------------------------------------
 Molecular Point Group                 C1    NOp =  1
 Largest Abelian Subgroup              C1    NOp =  1
 Nuclear Repulsion Energy =    37.4010645513 hartrees
 There are        9 alpha and        9 beta electrons
 Requested basis set is 6-311++G(d,p)
 There are 27 shells and 65 basis functions

 Total QAlloc Memory Limit   2000 MB
 Mega-Array Size       188 MB
 MEM_STATIC part       192 MB

finished with qalloc call

                       Distance Matrix (Angstroms)
             C (  1)   F (  2)   H (  3)   H (  4)
   F (  2)  1.382985
   H (  3)  1.086457  2.018197
   H (  4)  1.086452  2.018197  1.778899
   H (  5)  1.086499  2.018362  1.778847  1.778913

 Job number = 2, Threshold = 1.00E-08
Integral type ranges set in mkLRange.C for JobNum: 2  <1-21|1-21>
Symmetry turned off temporarily
 Using the largest function pair in Schwarz integrals
Total number of integrals generated =           31489
Symmetry turned back on
 A cutoff of  1.0D-08 yielded    378 shell pairs
 There are      2222 function pairs (      2365 Cartesian)
 Job number = 11, Threshold = 1.00E-08
Integral type ranges set in mkLRange.C for JobNum: 11  <1-21|22-22>
Total number of integrals generated =           11825
 Smallest overlap matrix eigenvalue = 1.46E-03
 Multipole matrices computed through 2nd order

 Scale SEOQF with 1.000000e-01/1.000000e-01/1.000000e-01

 Standard Electronic Orientation quadrupole field applied
 Nucleus-field energy     =     0.0000000003 hartrees
 ENuRep (before)= 37.4010645513
 ENucField = 0.0000000003
 ENuRep (after) = 37.4010645516
 Guess from superposition of atomic densities
 Warning:  Energy on first SCF cycle will be non-variational
 SAD guess density has 18.000000 electrons

 ==================================================
    GEN_SCFMAN: A general SCF calculation manager  
                                                   
    Authors:                                       
        -- Eric Jon Sundstrom 2008-2014            
        -- Paul Horn 2010-2015                     
        -- Yuezhi Mao 2012-                        
        -- Dmitri Zuev 2014                        
        -- Alec White 2015-                        
        -- David Stuck 2015                        
        -- Shaama M.S. 2015                        
        -- Shane Yost 2015-                         
        -- Joonho Lee 2016-                        
        -- David Small 2016-                       
        -- Daniel Levine 2016-                     
        -- Susi Lehtola 2017-                      
        -- Hugh Burton 2017-                       
 ==================================================
 Hartree-Fock
Finding J and K together
 Job number = 22, Threshold = 1.00E-08
Integral type ranges set in mkLRange.C for JobNum: 22  <1-21|1-21>
 MakeJK  time:  CPU       0.35 s  wall       0.37 s
 HF Exchange:              -16.13004176209474
 One-Electron:             -264.94745525043697
 Total Coulomb:            104.45826333298228
 Nuclear repulsion:         37.40106455159640
 A restricted SCF calculation will be
 performed using DIIS
 SCF converges when DIIS error is below 1.0e-05
 ---------------------------------------
  Cycle       Energy         DIIS error
 ---------------------------------------
Finding J and K together
 Job number = 22, Threshold = 1.00E-08
Integral type ranges set in mkLRange.C for JobNum: 22  <1-21|1-21>
 MakeJK  time:  CPU       0.62 s  wall       0.67 s
 HF Exchange:              -16.34839647748180
 One-Electron:             -266.60323848288812
 Total Coulomb:            106.49882136142598
 Nuclear repulsion:         37.40106455159640
    1    -139.2181691280      6.82e-02  
Finding J and K together
 Job number = 22, Threshold = 1.00E-08
Integral type ranges set in mkLRange.C for JobNum: 22  <1-21|1-21>
 MakeJK  time:  CPU       0.62 s  wall       0.67 s
 HF Exchange:              -16.27190292007002
 One-Electron:             -266.13364598025061
 Total Coulomb:            105.92820060251080
 Nuclear repulsion:         37.40106455159640
    2    -139.0517490473      8.08e-03  
Finding J and K together
 Job number = 22, Threshold = 1.00E-08
Integral type ranges set in mkLRange.C for JobNum: 22  <1-21|1-21>
 MakeJK  time:  CPU       0.62 s  wall       0.67 s
 HF Exchange:              -16.33852364826496
 One-Electron:             -266.50313719758350
 Total Coulomb:            106.35801341148047
 Nuclear repulsion:         37.40106455159640
    3    -139.0762837462      4.57e-03  
Finding J and K together
 Job number = 22, Threshold = 1.00E-08
Integral type ranges set in mkLRange.C for JobNum: 22  <1-21|1-21>
 MakeJK  time:  CPU       0.62 s  wall       0.67 s
 HF Exchange:              -16.33023100758090
 One-Electron:             -266.40810001786690
 Total Coulomb:            106.25438478115764
 Nuclear repulsion:         37.40106455159640
    4    -139.0825828828      7.47e-04  
Finding J and K together
 Job number = 22, Threshold = 1.00E-08
Integral type ranges set in mkLRange.C for JobNum: 22  <1-21|1-21>
 MakeJK  time:  CPU       0.62 s  wall       0.68 s
 HF Exchange:              -16.33392773145994
 One-Electron:             -266.43562383853367
 Total Coulomb:            106.28558642154903
 Nuclear repulsion:         37.40106455159640
    5    -139.0828816927      1.75e-04  
Finding J and K together
 Job number = 22, Threshold = 1.00E-08
Integral type ranges set in mkLRange.C for JobNum: 22  <1-21|1-21>
 MakeJK  time:  CPU       0.62 s  wall       0.66 s
 HF Exchange:              -16.33348213191119
 One-Electron:             -266.43042569854271
 Total Coulomb:            106.27994151245449
 Nuclear repulsion:         37.40106455159640
    6    -139.0829005968      3.71e-05  
    7    -139.0829017664      9.62e-06  Convergence criterion met
 ---------------------------------------
 SCF time:   CPU 4.14s  wall 4.00s 
 Total energy in the final basis set =     -139.0829017664
 HF Exchange:              -16.33348213191119
 One-Electron:             -266.43042569854271
 Total Coulomb:            106.27994151245449
 Nuclear repulsion:         37.40106455159640
Wall  1 = 4
Clock 1 = 4.16253709793091
 ==================================================
                  Done GEN_SCFMAN                  
 ==================================================

Symmetry turned off temporarily

 --------------------------------------------------------------

                    Orbital Energies (a.u.)
 --------------------------------------------------------------

 Alpha MOs
 -- Occupied --
-26.278 -11.308  -1.588  -0.959  -0.697  -0.697  -0.676  -0.533
 -0.533
 -- Virtual --
  0.040   0.072   0.072   0.098   0.151   0.151   0.182   0.291
  0.291   0.293   0.342   0.378   0.378   0.385   0.532   0.560
  0.560   0.750   0.829   0.829   0.853   1.066   1.272   1.272
  1.581   1.641   1.641   1.689   1.774   1.774   1.952   1.966
  1.966   2.116   2.321   2.432   2.432   2.752   2.772   2.772
  2.858   2.858   3.189   3.491   4.012   4.012   4.285   4.285
  4.573   4.573   5.297   6.967   6.967   7.251  25.038  68.772
 --------------------------------------------------------------

          Ground-State Mulliken Net Atomic Charges

     Atom                 Charge (a.u.)
  ----------------------------------------
      1 C                    -0.134969
      2 F                    -0.247607
      3 H                     0.127528
      4 H                     0.127529
      5 H                     0.127519
  ----------------------------------------
  Sum of atomic charges =     0.000000

 -----------------------------------------------------------------
                    Cartesian Multipole Moments
 -----------------------------------------------------------------
    Charge (ESU x 10^10)
                 0.0000
    Dipole Moment (Debye)
         X      -2.2488      Y       0.0000      Z      -0.0000
       Tot       2.2488
    Quadrupole Moments (Debye-Ang)
        XX     -12.6747     XY       0.0001     YY     -11.7443
        XZ      -0.0001     YZ       0.0000     ZZ     -11.7446
    Octopole Moments (Debye-Ang^2)
       XXX       3.4548    XXY      -0.0002    XYY       1.0347
       YYY       0.6158    XXZ       0.0002    XYZ       0.0001
       YYZ       0.1916    XZZ       1.0348    YZZ      -0.6157
       ZZZ      -0.1918
    Hexadecapole Moments (Debye-Ang^3)
      XXXX     -51.4908   XXXY       0.0003   XXYY     -11.2071
      XYYY      -0.6908   YYYY     -16.3524   XXXZ      -0.0003
      XXYZ      -0.0002   XYYZ      -0.2150   YYYZ       0.0001
      XXZZ     -11.2071   XYZZ       0.6909   YYZZ      -5.4509
      XZZZ       0.2150   YZZZ       0.0002   ZZZZ     -16.3526
 -----------------------------------------------------------------
 Mayer SCF Bond Order, atomic valence on the diagonal:

            1           2           3           4           5
    1   3.8199916   0.8513000   0.9895662   0.9895673   0.9895581
    2   0.8513000   0.7410839  -0.0367448  -0.0367420  -0.0367293
    3   0.9895662  -0.0367448   0.9160327  -0.0183929  -0.0183958
    4   0.9895673  -0.0367420  -0.0183929   0.9160408  -0.0183917
    5   0.9895581  -0.0367293  -0.0183958  -0.0183917   0.9160414


 JobOver = TRUE
Archival summary:
1\1\qciep03\SP\HF\BasisUnspecified\113\jcartus\ThuFeb112:14:152018ThuFeb112:14:152018\0\\#,HF,BasisUnspecified,\\0,1\C\H,1,1.08645\H,1,1.08646,2,109.904\H,1,1.0865,2,109.902,3,-121.065,0\F,1,1.38298,2,109.035,3,119.462,0\\HF=-139.082902\\@

 Total job time:  4.71s(wall), 4.31s(cpu) 
 Thu Feb  1 12:14:15 2018

        *************************************************************
        *                                                           *
        *  Thank you very much for using Q-Chem.  Have a nice day.  *
        *                                                           *
        *************************************************************


*** MISSION COMPLETED -- STARFLEET OUT ***

0 sent ACK to 0 
now end server 0 ... 
