Process 0 of 1 is on qciep03 - thread support 0
initial socket setup ...start
initial socket setup ...done 
now start server 0 ... 
qciep03.tugraz.at 127.0.1
Q-Chem Developer Version! Running on 127.0.1.*
                  Welcome to Q-Chem
     A Quantum Leap Into The Future Of Chemistry


 Q-Chem 5.0, Q-Chem, Inc., Pleasanton, CA (2017)

 Yihan Shao,  Zhengting Gan,  E. Epifanovsky,  A. T. B. Gilbert,  M. Wormit,  
 J. Kussmann,  A. W. Lange,  A. Behn,  Jia Deng,  Xintian Feng,  D. Ghosh,  
 M. Goldey,  P. R. Horn,  L. D. Jacobson,  I. Kaliman,  T. Kus,  A. Landau,  
 Jie Liu,  E. I. Proynov,  R. M. Richard,  R. P. Steele,  E. J. Sundstrom,  
 H. L. Woodcock III,  P. M. Zimmerman,  D. Zuev,  B. Albrecht,  E. Alguire,  
 S. A. Baeppler,  D. Barton,  Z. Benda,  Y. A. Bernard,  E. J. Berquist,  
 K. B. Bravaya,  H. Burton,  D. Casanova,  Chun-Min Chang,  Yunqing Chen,  
 A. Chien,  K. D. Closser,  M. P. Coons,  S. Dasgupta,  A. L. Dempwolff,  
 M. Diedenhofen,  Hainam Do,  R. G. Edgar,  Po-Tung Fang,  S. Fatehi,  
 Qingguo Feng,  J. Fosso-Tande,  Qinghui Ge,  A. Ghysels,  G. Gidofalvi,  
 J. Gomes,  J. Gonthier,  A. Gunina,  M. W. D. Hanson-Heine,  
 P. H. P. Harbach,  A. W. Hauser,  J. E. Herr,  E. G. Hohenstein,  
 Z. C. Holden,  Kerwin Hui,  T.-C. Jagau,  Hyunjun Ji,  B. Kaduk,  
 K. Khistyaev,  Jaehoon Kim,  P. Klunzinger,  K. Koh,  D. Kosenkov,  
 L. Koulias,  T. Kowalczyk,  C. M. Krauter,  A. Kunitsa,  Ka Un Lao,  
 A. Laurent,  K. V. Lawler,  Joonho Lee,  D. Lefrancois,  S. Lehtola,  
 D. S. Levine,  Yi-Pei Li,  You-Sheng Lin,  Fenglai Liu,  E. Livshits,  
 A. Luenser,  P. Manohar,  E. Mansoor,  S. F. Manzer,  Shan-Ping Mao,  
 Yuezhi Mao,  N. Mardirossian,  A. V. Marenich,  T. Markovich,  
 L. A. Martinez-Martinez,  S. A. Maurer,  N. J. Mayhall,  S. C. McKenzie,  
 J.-M. Mewes,  A. F. Morrison,  J. W. Mullinax,  K. Nanda,  
 T. S. Nguyen-Beck,  R. Olivares-Amaya,  J. A. Parkhill,  T. M. Perrine,  
 F. Plasser,  S. Prager,  A. Prociuk,  E. Ramos,  D. R. Rehn,  F. Rob,  
 M. Schneider,  N. Sergueev,  S. M. Sharada,  S. Sharma,  D. W. Small,  
 T. Stauch,  T. Stein,  Yu-Chuan Su,  A. J. W. Thom,  A. Tkatchenko,  
 T. Tsuchimochi,  L. Vogt,  O. Vydrov,  M. A. Watson,  J. Wenzel,  
 M. de Wergifosse,  T. A. Wesolowski,  A. White,  J. Witte,  A. Yamada,  
 Jun Yang,  K. Yao,  S. Yeganeh,  S. R. Yost,  Zhi-Qiang You,  A. Zech,  
 Igor Ying Zhang,  Xing Zhang,  Yan Zhao,  Ying Zhu,  B. R. Brooks,  
 G. K. L. Chan,  C. J. Cramer,  M. S. Gordon,  W. J. Hehre,  A. Klamt,  
 M. W. Schmidt,  C. D. Sherrill,  D. G. Truhlar,  A. Aspuru-Guzik,  R. Baer,  
 A. T. Bell,  N. A. Besley,  Jeng-Da Chai,  R. A. DiStasio Jr.,  A. Dreuw,  
 B. D. Dunietz,  T. R. Furlani,  Chao-Ping Hsu,  Yousung Jung,  Jing Kong,  
 D. S. Lambrecht,  WanZhen Liang,  C. Ochsenfeld,  V. A. Rassolov,  
 L. V. Slipchenko,  J. E. Subotnik,  T. Van Voorhis,  J. M. Herbert,  
 A. I. Krylov,  P. M. W. Gill,  M. Head-Gordon

 Contributors to earlier versions of Q-Chem not listed above: 
 R. D. Adamson,  B. Austin,  J. Baker,  G. J. O. Beran,  K. Brandhorst,  
 S. T. Brown,  E. F. C. Byrd,  A. K. Chakraborty,  C.-L. Cheng,  
 Siu Hung Chien,  D. M. Chipman,  D. L. Crittenden,  H. Dachsel,  
 R. J. Doerksen,  A. D. Dutoi,  L. Fusti-Molnar,  W. A. Goddard III,  
 A. Golubeva-Zadorozhnaya,  S. R. Gwaltney,  G. Hawkins,  A. Heyden,  
 S. Hirata,  G. Kedziora,  F. J. Keil,  C. Kelley,  Jihan Kim,  R. A. King,  
 R. Z. Khaliullin,  P. P. Korambath,  W. Kurlancheek,  A. M. Lee,  M. S. Lee,  
 S. V. Levchenko,  Ching Yeh Lin,  D. Liotard,  R. C. Lochan,  I. Lotan,  
 P. E. Maslen,  N. Nair,  D. P. O'Neill,  D. Neuhauser,  E. Neuscamman,  
 C. M. Oana,  R. Olson,  B. Peters,  R. Peverati,  P. A. Pieniazek,  
 Y. M. Rhee,  J. Ritchie,  M. A. Rohrdanz,  E. Rosta,  N. J. Russ,  
 H. F. Schaefer III,  N. E. Schultz,  N. Shenvi,  A. C. Simmonett,  A. Sodt,  
 D. Stuck,  K. S. Thanthiriwatte,  V. Vanovschi,  Tao Wang,  A. Warshel,  
 C. F. Williams,  Q. Wu,  X. Xu,  W. Zhang

 Please cite Q-Chem as follows:
 Y. Shao et al., Mol. Phys. 113, 184-215 (2015)
 DOI: 10.1080/00268976.2014.952696

 Q-Chem 5.0.2 for Intel X86 EM64T Linux

 Parts of Q-Chem use Armadillo 5.200.1 (Boston Tea Smuggler).
 http://arma.sourceforge.net/

 Q-Chem begins on Thu Jan 25 17:19:46 2018  


Host: 0

     Scratch files written to /home/jcartus/scratch/Benzene-HCN-complex_mono2.dir//
 Using version located at /usr/local/qchem/bin/qchem

 Parallel job on  1  processors

Total Memory Limit in MB = 2000
Mega-Array Size in MB = 192

Checking the input file for inconsistencies... 	...done.
Finally everything over in PARseQInput

--------------------------------------------------------------
User input:
--------------------------------------------------------------
$rem
SCF_PRINT                     1
BASIS                         6-311++g**
SCF_SAVE_MATRICES             1
SCF_CONVERGENCE               5
SCF_FINAL_PRINT               1
METHOD                        hf
JOBTYPE                       sp
$end

$molecule
0 1
C    -0.7097741    -0.990423    1.2077018
C    -1.406534    -0.9653529    0.0
C    -0.7097741    -0.990423    -1.2077018
C    0.6839651    -1.0405105    -1.2078652
C    1.3809779    -1.0655522    0.0
C    0.6839651    -1.0405105    1.2078652
H    -1.2499482    -0.968628    2.1440507
H    -2.4869197    -0.923706    0.0
H    -1.2499482    -0.968628    -2.1440507
H    1.2242882    -1.0580753    -2.1442563
H    2.4615886    -1.1029818    0.0
H    1.2242882    -1.0580753    2.1442563
$end


--------------------------------------------------------------
 I,J,IOp=           1           3           2  D=   1.4253121395221135E-011 Fix sym
 I, IOp=           2           2  D=   1.4250822744088509E-011 Fix sym
 I,J,IOp=           4           6           2  D=   1.4253801437460640E-011 Fix sym
 I, IOp=           5           2  D=   1.4253043190137760E-011 Fix sym
 I,J,IOp=           7           9           2  D=   2.5301727598225037E-011 Fix sym
 I, IOp=           8           2  D=   2.5299762285158067E-011 Fix sym
 I,J,IOp=          10          12           2  D=   2.5304419831920226E-011 Fix sym
 I, IOp=          11           2  D=   2.5303314998836868E-011 Fix sym
 ----------------------------------------------------------------
             Standard Nuclear Orientation (Angstroms)
    I     Atom           X                Y                Z
 ----------------------------------------------------------------
    1      C      -0.6973629837    -0.0003744637     1.2077018000
    2      C      -1.3945737602    -0.0004102936     0.0000000000
    3      C      -0.6973629837    -0.0003744637    -1.2077018000
    4      C       0.6972759293    -0.0002422377    -1.2078652000
    5      C       1.3947384192    -0.0001689195    -0.0000000000
    6      C       0.6972759293    -0.0002422377     1.2078652000
    7      H      -1.2379715786     0.0019552384     2.1440507000
    8      H      -2.4757584564     0.0023059203     0.0000000000
    9      H      -1.2379715786     0.0019552384    -2.1440507000
   10      H       1.2378811020     0.0016608822    -2.1442563000
   11      H       2.4759961084     0.0013375335    -0.0000000000
   12      H       1.2378811020     0.0016608822     2.1442563000
 ----------------------------------------------------------------
 Molecular Point Group                 Cs    NOp =  2
 Largest Abelian Subgroup              Cs    NOp =  2
 Nuclear Repulsion Energy =   203.5951352717 hartrees
 There are       21 alpha and       21 beta electrons
 Requested basis set is 6-311++G(d,p)
 There are 66 shells and 174 basis functions

 Total QAlloc Memory Limit   2000 MB
 Mega-Array Size       188 MB
 MEM_STATIC part       192 MB

finished with qalloc call

                       Distance Matrix (Angstroms)
             C (  1)   C (  2)   C (  3)   C (  4)   C (  5)   C (  6)
   C (  2)  1.394506
   C (  3)  2.415404  1.394506
   C (  4)  2.789262  2.415528  1.394639
   C (  5)  2.415664  2.789312  2.415664  1.394773
   C (  6)  1.394639  2.415528  2.789262  2.415730  1.394773
   H (  7)  1.081209  2.149764  3.395071  3.870469  3.395309  2.149798
   H (  8)  2.149707  1.081188  2.149707  3.395157  3.870498  3.395157
   H (  9)  3.395071  2.149764  1.081209  2.149798  3.395309  3.870469
   H ( 10)  3.870503  3.395240  2.149955  1.081243  2.149987  3.395435
   H ( 11)  3.395402  3.870570  3.395402  2.150067  1.081259  2.150067
   H ( 12)  2.149955  3.395240  3.870503  3.395435  2.149987  1.081243
             H (  7)   H (  8)   H (  9)   H ( 10)   H ( 11)
   H (  8)  2.475696
   H (  9)  4.288101  2.475696
   H ( 10)  4.951709  4.288234  2.475853
   H ( 11)  4.288416  4.951755  4.288416  2.476038
   H ( 12)  2.475853  4.288234  4.951709  4.288513  2.476038

 Job number = 2, Threshold = 1.00E-08
Integral type ranges set in mkLRange.C for JobNum: 2  <1-21|1-21>
Symmetry turned off temporarily
 Using the largest function pair in Schwarz integrals
Total number of integrals generated =          233997
Symmetry turned back on
 A cutoff of  1.0D-08 yielded   2055 shell pairs
 There are     14694 function pairs (     15765 Cartesian)
 Job number = 11, Threshold = 1.00E-08
Integral type ranges set in mkLRange.C for JobNum: 11  <1-21|22-22>
Total number of integrals generated =          106440
 Smallest overlap matrix eigenvalue = 1.07E-06

 Q-Chem warning in module /usr/local/qchem/stvman/mkSTV.C, line 295:

 Overlap eigenvalue is smaller than square root of threshold

 Multipole matrices computed through 2nd order

 Scale SEOQF with 1.000000e-01/1.000000e-01/1.000000e-01

 Standard Electronic Orientation quadrupole field applied
 Nucleus-field energy     =    -0.0000000038 hartrees
 ENuRep (before)= 203.5951352717
 ENucField = -0.0000000038
 ENuRep (after) = 203.5951352679
 Guess from superposition of atomic densities
 Warning:  Energy on first SCF cycle will be non-variational
 SAD guess density has 42.000000 electrons

 ==================================================
    GEN_SCFMAN: A general SCF calculation manager  
                                                   
    Authors:                                       
        -- Eric Jon Sundstrom 2008-2014            
        -- Paul Horn 2010-2015                     
        -- Yuezhi Mao 2012-                        
        -- Dmitri Zuev 2014                        
        -- Alec White 2015-                        
        -- David Stuck 2015                        
        -- Shaama M.S. 2015                        
        -- Shane Yost 2015-                         
        -- Joonho Lee 2016-                        
        -- David Small 2016-                       
        -- Daniel Levine 2016-                     
        -- Susi Lehtola 2017-                      
        -- Hugh Burton 2017-                       
 ==================================================
 Hartree-Fock
Finding J and K together
 Job number = 22, Threshold = 1.00E-08
Integral type ranges set in mkLRange.C for JobNum: 22  <1-21|1-21>
 MakeJK  time:  CPU       2.30 s  wall       2.43 s
 HF Exchange:              -34.14588328754188
 One-Electron:             -709.15194594878062
 Total Coulomb:            306.45792113624321
 Nuclear repulsion:        203.59513526789507
 A restricted SCF calculation will be
 performed using DIIS
 SCF converges when DIIS error is below 1.0e-05
 ---------------------------------------
  Cycle       Energy         DIIS error
 ---------------------------------------
Finding J and K together
 Job number = 22, Threshold = 1.00E-08
Integral type ranges set in mkLRange.C for JobNum: 22  <1-21|1-21>
 MakeJK  time:  CPU       8.80 s  wall       8.90 s
 HF Exchange:              -33.16485068670877
 One-Electron:             -713.94838638097031
 Total Coulomb:            312.82599553933528
 Nuclear repulsion:        203.59513526789507
    1    -233.2447728322      5.18e-02  
Finding J and K together
 Job number = 22, Threshold = 1.00E-08
Integral type ranges set in mkLRange.C for JobNum: 22  <1-21|1-21>
 MakeJK  time:  CPU       9.07 s  wall       9.09 s
 HF Exchange:              -33.20971161459014
 One-Electron:             -713.16385615676961
 Total Coulomb:            312.02710578635322
 Nuclear repulsion:        203.59513526789507
    2    -230.6921062604      3.32e-03  
Finding J and K together
 Job number = 22, Threshold = 1.00E-08
Integral type ranges set in mkLRange.C for JobNum: 22  <1-21|1-21>
 MakeJK  time:  CPU       8.85 s  wall       8.86 s
 HF Exchange:              -33.26475240816600
 One-Electron:             -713.80463315541374
 Total Coulomb:            312.71847378350452
 Nuclear repulsion:        203.59513526789507
    3    -230.7513267171      9.04e-04  
Finding J and K together
 Job number = 22, Threshold = 1.00E-08
Integral type ranges set in mkLRange.C for JobNum: 22  <1-21|1-21>
 MakeJK  time:  CPU       8.89 s  wall       8.90 s
 HF Exchange:              -33.25072517900391
 One-Electron:             -713.51552598821456
 Total Coulomb:            312.41484401592686
 Nuclear repulsion:        203.59513526789507
    4    -230.7557765122      3.46e-04  
Finding J and K together
 Job number = 22, Threshold = 1.00E-08
Integral type ranges set in mkLRange.C for JobNum: 22  <1-21|1-21>
 MakeJK  time:  CPU       8.60 s  wall       8.61 s
 HF Exchange:              -33.25178165249545
 One-Electron:             -713.52760475470620
 Total Coulomb:            312.42796859386766
 Nuclear repulsion:        203.59513526789507
    5    -230.7562718834      3.45e-05  
    6    -230.7562825454      6.40e-06  Convergence criterion met
 ---------------------------------------
 SCF time:   CPU 47.36s  wall 48.00s 
 Total energy in the final basis set =     -230.7562825454
 HF Exchange:              -33.25178165249545
 One-Electron:             -713.52760475470620
 Total Coulomb:            312.42796859386766
 Nuclear repulsion:        203.59513526789507
Wall  1 = 48
Clock 1 = 47.50627136230469
 ==================================================
                  Done GEN_SCFMAN                  
 ==================================================

Symmetry turned off temporarily

 --------------------------------------------------------------
             Orbital Energies (a.u.) and Symmetries
 --------------------------------------------------------------

 Alpha MOs, Restricted
 -- Occupied --                  
-11.239 -11.238 -11.238 -11.237 -11.237 -11.236  -1.152  -1.017
  1 A'    1 A"    2 A'    2 A"    3 A'    4 A'    5 A'    3 A"                 
 -1.017  -0.826  -0.826  -0.711  -0.646  -0.621  -0.590  -0.590
  6 A'    4 A"    7 A'    8 A'    9 A'    5 A"    6 A"   10 A'                 
 -0.502  -0.496  -0.496  -0.337  -0.337
 11 A'    7 A"   12 A'    8 A"   13 A'                                         
 -- Virtual --                   
  0.042   0.049   0.049   0.066   0.066   0.088   0.109   0.109
 14 A'    9 A"   15 A'   10 A"   16 A'   17 A'   11 A"   18 A'                 
  0.129   0.153   0.153   0.158   0.163   0.181   0.181   0.183
 19 A'   12 A"   20 A'   21 A'   13 A"   22 A'   14 A"   15 A"                 
  0.183   0.193   0.209   0.212   0.212   0.216   0.216   0.218
 23 A'   24 A'   25 A'   16 A"   26 A'   17 A"   27 A'   28 A'                 
  0.228   0.228   0.250   0.250   0.289   0.289   0.303   0.333
 18 A"   29 A'   30 A'   19 A"   31 A'   20 A"   21 A"   32 A'                 
  0.335   0.369   0.409   0.409   0.430   0.430   0.441   0.498
 33 A'   34 A'   22 A"   35 A'   23 A"   36 A'   37 A'   24 A"                 
  0.498   0.509   0.509   0.604   0.610   0.715   0.723   0.723
 38 A'   25 A"   39 A'   26 A"   40 A'   41 A'   27 A"   42 A'                 
  0.728   0.751   0.751   0.751   0.758   0.758   0.797   0.820
 43 A'   28 A"   29 A"   44 A'   30 A"   45 A'   46 A'   31 A"                 
  0.820   0.886   0.940   0.940   0.951   0.951   0.976   1.016
 47 A'   48 A'   32 A"   49 A'   33 A"   50 A'   51 A'   34 A"                 
  1.016   1.017   1.059   1.059   1.106   1.122   1.122   1.130
 52 A'   53 A'   35 A"   54 A'   55 A'   36 A"   56 A'   37 A"                 
  1.170   1.219   1.219   1.249   1.323   1.323   1.391   1.391
 57 A'   38 A"   58 A'   39 A"   40 A"   59 A'   41 A"   60 A'                 
  1.524   1.558   1.711   1.786   1.786   1.796   1.826   1.845
 61 A'   62 A'   42 A"   63 A'   43 A"   64 A'   65 A'   44 A"                 
  1.845   1.908   1.908   1.933   1.933   1.992   2.056   2.056
 66 A'   67 A'   45 A"   68 A'   46 A"   69 A'   47 A"   70 A'                 
  2.104   2.104   2.131   2.236   2.236   2.239   2.248   2.248
 71 A'   48 A"   49 A"   50 A"   72 A'   51 A"   73 A'   52 A"                 
  2.298   2.347   2.347   2.380   2.380   2.640   2.662   2.743
 74 A'   75 A'   53 A"   54 A"   76 A'   77 A'   55 A"   56 A"                 
  2.743   2.747   2.817   2.817   2.962   2.962   2.988   2.994
 78 A'   79 A'   57 A"   80 A'   58 A"   81 A'   82 A'   83 A'                 
  3.022   3.022   3.045   3.045   3.058   3.088   3.192   3.192
 59 A"   84 A'   60 A"   85 A'   86 A'   87 A'   61 A"   88 A'                 
  3.267   3.293   3.293   3.330   3.330   3.481   3.547   3.775
 62 A"   63 A"   89 A'   64 A"   90 A'   91 A'   65 A"   92 A'                 
  3.775   3.907   3.907   3.921   4.080   4.411   4.411   4.500
 66 A"   67 A"   93 A'   94 A'   95 A'   68 A"   96 A'   97 A'                 
  4.576   4.576   5.277  24.753  25.138  25.138  25.259  25.259
 69 A"   98 A'   70 A"   99 A'   71 A"  100 A'   72 A"  101 A'                 
 25.370
102 A'                                                                         

 Beta MOs, Restricted
 -- Occupied --                  
-11.239 -11.238 -11.238 -11.237 -11.237 -11.236  -1.152  -1.017
  1 A'    1 A"    2 A'    2 A"    3 A'    4 A'    5 A'    3 A"                 
 -1.017  -0.826  -0.826  -0.711  -0.646  -0.621  -0.590  -0.590
  6 A'    4 A"    7 A'    8 A'    9 A'    5 A"    6 A"   10 A'                 
 -0.502  -0.496  -0.496  -0.337  -0.337
 11 A'    7 A"   12 A'    8 A"   13 A'                                         
 -- Virtual --                   
  0.042   0.049   0.049   0.066   0.066   0.088   0.109   0.109
 14 A'    9 A"   15 A'   10 A"   16 A'   17 A'   11 A"   18 A'                 
  0.129   0.153   0.153   0.158   0.163   0.181   0.181   0.183
 19 A'   12 A"   20 A'   21 A'   13 A"   22 A'   14 A"   15 A"                 
  0.183   0.193   0.209   0.212   0.212   0.216   0.216   0.218
 23 A'   24 A'   25 A'   16 A"   26 A'   17 A"   27 A'   28 A'                 
  0.228   0.228   0.250   0.250   0.289   0.289   0.303   0.333
 18 A"   29 A'   30 A'   19 A"   31 A'   20 A"   21 A"   32 A'                 
  0.335   0.369   0.409   0.409   0.430   0.430   0.441   0.498
 33 A'   34 A'   22 A"   35 A'   23 A"   36 A'   37 A'   24 A"                 
  0.498   0.509   0.509   0.604   0.610   0.715   0.723   0.723
 38 A'   25 A"   39 A'   26 A"   40 A'   41 A'   27 A"   42 A'                 
  0.728   0.751   0.751   0.751   0.758   0.758   0.797   0.820
 43 A'   28 A"   29 A"   44 A'   30 A"   45 A'   46 A'   31 A"                 
  0.820   0.886   0.940   0.940   0.951   0.951   0.976   1.016
 47 A'   48 A'   32 A"   49 A'   33 A"   50 A'   51 A'   34 A"                 
  1.016   1.017   1.059   1.059   1.106   1.122   1.122   1.130
 52 A'   53 A'   35 A"   54 A'   55 A'   36 A"   56 A'   37 A"                 
  1.170   1.219   1.219   1.249   1.323   1.323   1.391   1.391
 57 A'   38 A"   58 A'   39 A"   40 A"   59 A'   41 A"   60 A'                 
  1.524   1.558   1.711   1.786   1.786   1.796   1.826   1.845
 61 A'   62 A'   42 A"   63 A'   43 A"   64 A'   65 A'   44 A"                 
  1.845   1.908   1.908   1.933   1.933   1.992   2.056   2.056
 66 A'   67 A'   45 A"   68 A'   46 A"   69 A'   47 A"   70 A'                 
  2.104   2.104   2.131   2.236   2.236   2.239   2.248   2.248
 71 A'   48 A"   49 A"   50 A"   72 A'   51 A"   73 A'   52 A"                 
  2.298   2.347   2.347   2.380   2.380   2.640   2.662   2.743
 74 A'   75 A'   53 A"   54 A"   76 A'   77 A'   55 A"   56 A"                 
  2.743   2.747   2.817   2.817   2.962   2.962   2.988   2.994
 78 A'   79 A'   57 A"   80 A'   58 A"   81 A'   82 A'   83 A'                 
  3.022   3.022   3.045   3.045   3.058   3.088   3.192   3.192
 59 A"   84 A'   60 A"   85 A'   86 A'   87 A'   61 A"   88 A'                 
  3.267   3.293   3.293   3.330   3.330   3.481   3.547   3.775
 62 A"   63 A"   89 A'   64 A"   90 A'   91 A'   65 A"   92 A'                 
  3.775   3.907   3.907   3.921   4.080   4.411   4.411   4.500
 66 A"   67 A"   93 A'   94 A'   95 A'   68 A"   96 A'   97 A'                 
  4.576   4.576   5.277  24.753  25.138  25.138  25.259  25.259
 69 A"   98 A'   70 A"   99 A'   71 A"  100 A'   72 A"  101 A'                 
 25.370
102 A'                                                                         
 --------------------------------------------------------------

          Ground-State Mulliken Net Atomic Charges

     Atom                 Charge (a.u.)
  ----------------------------------------
      1 C                    -0.191259
      2 C                    -0.194084
      3 C                    -0.191259
      4 C                    -0.193888
      5 C                    -0.191520
      6 C                    -0.193888
      7 H                     0.192689
      8 H                     0.192558
      9 H                     0.192689
     10 H                     0.192636
     11 H                     0.192691
     12 H                     0.192636
  ----------------------------------------
  Sum of atomic charges =    -0.000000

 -----------------------------------------------------------------
                    Cartesian Multipole Moments
 -----------------------------------------------------------------
    Charge (ESU x 10^10)
                -0.0000
    Dipole Moment (Debye)
         X      -0.0002      Y       0.0094      Z      -0.0000
       Tot       0.0094
    Quadrupole Moments (Debye-Ang)
        XX     -31.9140     XY      -0.0038     YY     -41.3179
        XZ       0.0000     YZ       0.0000     ZZ     -31.9145
    Octopole Moments (Debye-Ang^2)
       XXX       0.0006    XXY       0.0440    XYY      -0.0024
       YYY       0.0175    XXZ      -0.0000    XYZ      -0.0000
       YYZ      -0.0000    XZZ       0.0006    YZZ       0.0439
       ZZZ      -0.0000
    Hexadecapole Moments (Debye-Ang^3)
      XXXX    -270.5676   XXXY      -0.0268   XXYY     -66.1171
      XYYY      -0.0059   YYYY     -52.1946   XXXZ      -0.0000
      XXYZ       0.0000   XYYZ       0.0000   YYYZ       0.0000
      XXZZ     -90.1895   XYZZ      -0.0064   YYZZ     -66.1161
      XZZZ       0.0000   YZZZ       0.0000   ZZZZ    -270.5655
 -----------------------------------------------------------------
 Mayer SCF Bond Order, atomic valence on the diagonal:

            1           2           3           4           5           6
    1   4.4302599   1.8293668  -0.0975895   0.0482630  -0.0972631   1.8294482
    2   1.8293668   4.4330702   1.8293668  -0.0958883   0.0482455  -0.0958883
    3  -0.0975895   1.8293668   4.4302599   1.8294482  -0.0972631   0.0482630
    4   0.0482630  -0.0958883   1.8294482   4.4329834   1.8291477  -0.0958377
    5  -0.0972631   0.0482455  -0.0972631   1.8291477   4.4300565   1.8291477
    6   1.8294482  -0.0958883   0.0482630  -0.0958377   1.8291477   4.4329834
    7   0.7790244   0.0907810  -0.0264485   0.0101371  -0.0264181   0.0907781
    8   0.0908622   0.7790687   0.0908622  -0.0264266   0.0101462  -0.0264266
    9  -0.0264485   0.0907810   0.7790244   0.0907781  -0.0264181   0.0101371
   10   0.0101522  -0.0264490   0.0908679   0.7790320   0.0908131  -0.0264178
   11  -0.0264236   0.0101351  -0.0264236   0.0907478   0.7791057   0.0907478
   12   0.0908679  -0.0264490   0.0101522  -0.0264178   0.0908131   0.7790320
            7           8           9          10          11          12
    1   0.7790244   0.0908622  -0.0264485   0.0101522  -0.0264236   0.0908679
    2   0.0907810   0.7790687   0.0907810  -0.0264490   0.0101351  -0.0264490
    3  -0.0264485   0.0908622   0.7790244   0.0908679  -0.0264236   0.0101522
    4   0.0101371  -0.0264266   0.0907781   0.7790320   0.0907478  -0.0264178
    5  -0.0264181   0.0101462  -0.0264181   0.0908131   0.7791057   0.0908131
    6   0.0907781  -0.0264266   0.0101371  -0.0264178   0.0907478   0.7790320
    7   0.9406770   0.0108044   0.0006057  -0.0000008   0.0006056   0.0108081
    8   0.0108044   0.9409066   0.0108044   0.0006062  -0.0000006   0.0006062
    9   0.0006057   0.0108044   0.9406770   0.0108081   0.0006056  -0.0000008
   10  -0.0000008   0.0006062   0.0108081   0.9408245   0.0108065   0.0006062
   11   0.0006056  -0.0000006   0.0006056   0.0108065   0.9407130   0.0108065
   12   0.0108081   0.0006062  -0.0000008   0.0006062   0.0108065   0.9408245


 JobOver = TRUE
Archival summary:
1\1\qciep03\SP\HF\BasisUnspecified\66\jcartus\ThuJan2517:20:342018ThuJan2517:20:342018\0\\#,HF,BasisUnspecified,\\0,1\C\H,1,1.08119\C,1,1.39451,2,119.998\H,3,1.08121,1,120.002,2,-0.0253481,0\C,1,1.39451,2,119.998,3,179.83,0\H,5,1.08121,1,120.002,2,0.0253481,0\C,5,1.39464,1,120.005,2,-179.828,0\H,7,1.08124,5,120.006,1,179.885,0\C,3,1.39464,1,120.005,2,179.828,0\H,9,1.08124,3,120.006,1,-179.885,0\C,7,1.39477,5,119.997,1,-0.00109518,0\H,11,1.08126,7,120.004,5,179.914,0\\HF=-230.756283\\@

 Total job time:  48.75s(wall), 48.40s(cpu) 
 Thu Jan 25 17:20:34 2018

        *************************************************************
        *                                                           *
        *  Thank you very much for using Q-Chem.  Have a nice day.  *
        *                                                           *
        *************************************************************


*** MISSION COMPLETED -- STARFLEET OUT ***

0 sent ACK to 0 
now end server 0 ... 
