Process 0 of 1 is on qciep03 - thread support 0
initial socket setup ...start
initial socket setup ...done 
now start server 0 ... 
qciep03.tugraz.at 127.0.1
Q-Chem Developer Version! Running on 127.0.1.*
                  Welcome to Q-Chem
     A Quantum Leap Into The Future Of Chemistry


 Q-Chem 5.0, Q-Chem, Inc., Pleasanton, CA (2017)

 Yihan Shao,  Zhengting Gan,  E. Epifanovsky,  A. T. B. Gilbert,  M. Wormit,  
 J. Kussmann,  A. W. Lange,  A. Behn,  Jia Deng,  Xintian Feng,  D. Ghosh,  
 M. Goldey,  P. R. Horn,  L. D. Jacobson,  I. Kaliman,  T. Kus,  A. Landau,  
 Jie Liu,  E. I. Proynov,  R. M. Richard,  R. P. Steele,  E. J. Sundstrom,  
 H. L. Woodcock III,  P. M. Zimmerman,  D. Zuev,  B. Albrecht,  E. Alguire,  
 S. A. Baeppler,  D. Barton,  Z. Benda,  Y. A. Bernard,  E. J. Berquist,  
 K. B. Bravaya,  H. Burton,  D. Casanova,  Chun-Min Chang,  Yunqing Chen,  
 A. Chien,  K. D. Closser,  M. P. Coons,  S. Dasgupta,  A. L. Dempwolff,  
 M. Diedenhofen,  Hainam Do,  R. G. Edgar,  Po-Tung Fang,  S. Fatehi,  
 Qingguo Feng,  J. Fosso-Tande,  Qinghui Ge,  A. Ghysels,  G. Gidofalvi,  
 J. Gomes,  J. Gonthier,  A. Gunina,  M. W. D. Hanson-Heine,  
 P. H. P. Harbach,  A. W. Hauser,  J. E. Herr,  E. G. Hohenstein,  
 Z. C. Holden,  Kerwin Hui,  T.-C. Jagau,  Hyunjun Ji,  B. Kaduk,  
 K. Khistyaev,  Jaehoon Kim,  P. Klunzinger,  K. Koh,  D. Kosenkov,  
 L. Koulias,  T. Kowalczyk,  C. M. Krauter,  A. Kunitsa,  Ka Un Lao,  
 A. Laurent,  K. V. Lawler,  Joonho Lee,  D. Lefrancois,  S. Lehtola,  
 D. S. Levine,  Yi-Pei Li,  You-Sheng Lin,  Fenglai Liu,  E. Livshits,  
 A. Luenser,  P. Manohar,  E. Mansoor,  S. F. Manzer,  Shan-Ping Mao,  
 Yuezhi Mao,  N. Mardirossian,  A. V. Marenich,  T. Markovich,  
 L. A. Martinez-Martinez,  S. A. Maurer,  N. J. Mayhall,  S. C. McKenzie,  
 J.-M. Mewes,  A. F. Morrison,  J. W. Mullinax,  K. Nanda,  
 T. S. Nguyen-Beck,  R. Olivares-Amaya,  J. A. Parkhill,  T. M. Perrine,  
 F. Plasser,  S. Prager,  A. Prociuk,  E. Ramos,  D. R. Rehn,  F. Rob,  
 M. Schneider,  N. Sergueev,  S. M. Sharada,  S. Sharma,  D. W. Small,  
 T. Stauch,  T. Stein,  Yu-Chuan Su,  A. J. W. Thom,  A. Tkatchenko,  
 T. Tsuchimochi,  L. Vogt,  O. Vydrov,  M. A. Watson,  J. Wenzel,  
 M. de Wergifosse,  T. A. Wesolowski,  A. White,  J. Witte,  A. Yamada,  
 Jun Yang,  K. Yao,  S. Yeganeh,  S. R. Yost,  Zhi-Qiang You,  A. Zech,  
 Igor Ying Zhang,  Xing Zhang,  Yan Zhao,  Ying Zhu,  B. R. Brooks,  
 G. K. L. Chan,  C. J. Cramer,  M. S. Gordon,  W. J. Hehre,  A. Klamt,  
 M. W. Schmidt,  C. D. Sherrill,  D. G. Truhlar,  A. Aspuru-Guzik,  R. Baer,  
 A. T. Bell,  N. A. Besley,  Jeng-Da Chai,  R. A. DiStasio Jr.,  A. Dreuw,  
 B. D. Dunietz,  T. R. Furlani,  Chao-Ping Hsu,  Yousung Jung,  Jing Kong,  
 D. S. Lambrecht,  WanZhen Liang,  C. Ochsenfeld,  V. A. Rassolov,  
 L. V. Slipchenko,  J. E. Subotnik,  T. Van Voorhis,  J. M. Herbert,  
 A. I. Krylov,  P. M. W. Gill,  M. Head-Gordon

 Contributors to earlier versions of Q-Chem not listed above: 
 R. D. Adamson,  B. Austin,  J. Baker,  G. J. O. Beran,  K. Brandhorst,  
 S. T. Brown,  E. F. C. Byrd,  A. K. Chakraborty,  C.-L. Cheng,  
 Siu Hung Chien,  D. M. Chipman,  D. L. Crittenden,  H. Dachsel,  
 R. J. Doerksen,  A. D. Dutoi,  L. Fusti-Molnar,  W. A. Goddard III,  
 A. Golubeva-Zadorozhnaya,  S. R. Gwaltney,  G. Hawkins,  A. Heyden,  
 S. Hirata,  G. Kedziora,  F. J. Keil,  C. Kelley,  Jihan Kim,  R. A. King,  
 R. Z. Khaliullin,  P. P. Korambath,  W. Kurlancheek,  A. M. Lee,  M. S. Lee,  
 S. V. Levchenko,  Ching Yeh Lin,  D. Liotard,  R. C. Lochan,  I. Lotan,  
 P. E. Maslen,  N. Nair,  D. P. O'Neill,  D. Neuhauser,  E. Neuscamman,  
 C. M. Oana,  R. Olson,  B. Peters,  R. Peverati,  P. A. Pieniazek,  
 Y. M. Rhee,  J. Ritchie,  M. A. Rohrdanz,  E. Rosta,  N. J. Russ,  
 H. F. Schaefer III,  N. E. Schultz,  N. Shenvi,  A. C. Simmonett,  A. Sodt,  
 D. Stuck,  K. S. Thanthiriwatte,  V. Vanovschi,  Tao Wang,  A. Warshel,  
 C. F. Williams,  Q. Wu,  X. Xu,  W. Zhang

 Please cite Q-Chem as follows:
 Y. Shao et al., Mol. Phys. 113, 184-215 (2015)
 DOI: 10.1080/00268976.2014.952696

 Q-Chem 5.0.2 for Intel X86 EM64T Linux

 Parts of Q-Chem use Armadillo 5.200.1 (Boston Tea Smuggler).
 http://arma.sourceforge.net/

 Q-Chem begins on Thu Feb  1 11:59:28 2018  


Host: 0

     Scratch files written to /home/jcartus/scratch/28_CH3I-ben_mono1.dir//
 Using version located at /usr/local/qchem/bin/qchem

 Parallel job on  1  processors

Total Memory Limit in MB = 2000
Mega-Array Size in MB = 192

Checking the input file for inconsistencies... 	...done.
Finally everything over in PARseQInput

--------------------------------------------------------------
User input:
--------------------------------------------------------------
$rem
SCF_PRINT                     1
BASIS                         6-311++g**
SCF_SAVE_MATRICES             1
SCF_CONVERGENCE               5
SCF_FINAL_PRINT               1
METHOD                        hf
JOBTYPE                       sp
$end

$molecule
0 1
H    0.022106668    0.337720036    0.044305376
C    0.026919353    0.297157256    1.127793236
C    1.232420009    0.374285365    1.823206501
C    1.238505395    0.31830385    3.215636232
C    0.039447508    0.184540972    3.91325517
C    -1.166219961    0.107113476    3.218629152
C    -1.172980038    0.163913404    1.825514693
H    2.16553244    0.474316067    1.280310128
H    2.176629361    0.375131147    3.756175076
H    0.04471698    0.13704066    4.996380563
H    -2.098861603    -0.000562861    3.760947121
H    -2.110703107    0.101604635    1.284610113
$end


--------------------------------------------------------------
 ----------------------------------------------------------------
             Standard Nuclear Orientation (Angstroms)
    I     Atom           X                Y                Z
 ----------------------------------------------------------------
    1      H      -1.8273656493     1.6740834261     0.0029722147
    2      C      -1.0280223341     0.9415168461    -0.0003314513
    3      C      -1.3292695433    -0.4193763549    -0.0003495335
    4      C      -0.3015956083    -1.3606083269    -0.0007689267
    5      C       1.0275884910    -0.9415927287    -0.0005133880
    6      C       1.3295544927     0.4189038090    -0.0002438849
    7      C       0.3017547529     1.3610648035    -0.0006700392
    8      H      -2.3632904660    -0.7453017392     0.0034972018
    9      H      -0.5362107574    -2.4191137397     0.0024219967
   10      H       1.8269745527    -1.6739950908     0.0031428736
   11      H       2.3635124173     0.7451548808     0.0035841363
   12      H       0.5363183971     2.4197239740     0.0016449181
 ----------------------------------------------------------------
 Molecular Point Group                 C1    NOp =  1
 Largest Abelian Subgroup              C1    NOp =  1
 Nuclear Repulsion Energy =   203.6025800117 hartrees
 There are       21 alpha and       21 beta electrons
 Requested basis set is 6-311++G(d,p)
 There are 66 shells and 174 basis functions

 Total QAlloc Memory Limit   2000 MB
 Mega-Array Size       188 MB
 MEM_STATIC part       192 MB

finished with qalloc call

                       Distance Matrix (Angstroms)
             H (  1)   C (  2)   C (  3)   C (  4)   C (  5)   C (  6)
   C (  2)  1.084258
   C (  3)  2.151903  1.393836
   C (  4)  3.396666  2.414017  1.393568
   C (  5)  3.872020  2.787766  2.414019  1.393666
   C (  6)  3.397298  2.414807  2.787841  2.413983  1.393605
   C (  7)  2.152010  1.394392  2.414583  2.787748  2.414346  1.394288
   H (  8)  2.478032  2.151351  1.084178  2.151559  3.396558  3.872014
   H (  9)  4.292009  3.396428  2.151255  1.084199  2.151405  3.396385
   H ( 10)  4.956191  3.871940  3.396462  2.151520  1.084179  2.151201
   H ( 11)  4.292595  3.397217  3.872052  3.396625  2.151703  1.084216
   H ( 12)  2.478504  2.152269  3.397192  3.872082  3.397028  2.152326
             C (  7)   H (  8)   H (  9)   H ( 10)   H ( 11)
   H (  8)  3.396949
   H (  9)  3.871943  2.477876
   H ( 10)  3.396748  4.291945  2.477871
   H ( 11)  2.151792  4.956221  4.291968  2.477935
   H ( 12)  1.084336  4.292450  4.956276  4.292357  2.478472

 Job number = 2, Threshold = 1.00E-08
Integral type ranges set in mkLRange.C for JobNum: 2  <1-21|1-21>
Symmetry turned off temporarily
 Using the largest function pair in Schwarz integrals
Total number of integrals generated =          233997
Symmetry turned back on
 A cutoff of  1.0D-08 yielded   2055 shell pairs
 There are     14694 function pairs (     15765 Cartesian)
 Job number = 11, Threshold = 1.00E-08
Integral type ranges set in mkLRange.C for JobNum: 11  <1-21|22-22>
Total number of integrals generated =          189180
 Smallest overlap matrix eigenvalue = 1.06E-06

 Q-Chem warning in module /usr/local/qchem/stvman/mkSTV.C, line 295:

 Overlap eigenvalue is smaller than square root of threshold

 Multipole matrices computed through 2nd order

 Scale SEOQF with 1.000000e-01/1.000000e-01/1.000000e-01

 Standard Electronic Orientation quadrupole field applied
 Nucleus-field energy     =     0.0000000057 hartrees
 ENuRep (before)= 203.6025800117
 ENucField = 0.0000000057
 ENuRep (after) = 203.6025800174
 Guess from superposition of atomic densities
 Warning:  Energy on first SCF cycle will be non-variational
 SAD guess density has 42.000000 electrons

 ==================================================
    GEN_SCFMAN: A general SCF calculation manager  
                                                   
    Authors:                                       
        -- Eric Jon Sundstrom 2008-2014            
        -- Paul Horn 2010-2015                     
        -- Yuezhi Mao 2012-                        
        -- Dmitri Zuev 2014                        
        -- Alec White 2015-                        
        -- David Stuck 2015                        
        -- Shaama M.S. 2015                        
        -- Shane Yost 2015-                         
        -- Joonho Lee 2016-                        
        -- David Small 2016-                       
        -- Daniel Levine 2016-                     
        -- Susi Lehtola 2017-                      
        -- Hugh Burton 2017-                       
 ==================================================
 Hartree-Fock
Finding J and K together
 Job number = 22, Threshold = 1.00E-08
Integral type ranges set in mkLRange.C for JobNum: 22  <1-21|1-21>
 MakeJK  time:  CPU       3.49 s  wall       3.80 s
 HF Exchange:              -34.14107073365482
 One-Electron:             -709.17963816464805
 Total Coulomb:            306.47733020015784
 Nuclear repulsion:        203.60258001738694
 A restricted SCF calculation will be
 performed using DIIS
 SCF converges when DIIS error is below 1.0e-05
 ---------------------------------------
  Cycle       Energy         DIIS error
 ---------------------------------------
Finding J and K together
 Job number = 22, Threshold = 1.00E-08
Integral type ranges set in mkLRange.C for JobNum: 22  <1-21|1-21>
 MakeJK  time:  CPU      15.93 s  wall      16.50 s
 HF Exchange:              -33.16070659855504
 One-Electron:             -713.97054459826063
 Total Coulomb:            312.83667798941548
 Nuclear repulsion:        203.60258001738694
    1    -233.2407986808      5.18e-02  
Finding J and K together
 Job number = 22, Threshold = 1.00E-08
Integral type ranges set in mkLRange.C for JobNum: 22  <1-21|1-21>
 MakeJK  time:  CPU      16.74 s  wall      16.84 s
 HF Exchange:              -33.20518283683278
 One-Electron:             -713.17910984047364
 Total Coulomb:            312.03050456785650
 Nuclear repulsion:        203.60258001738694
    2    -230.6919931900      3.32e-03  
Finding J and K together
 Job number = 22, Threshold = 1.00E-08
Integral type ranges set in mkLRange.C for JobNum: 22  <1-21|1-21>
 MakeJK  time:  CPU      16.64 s  wall      16.69 s
 HF Exchange:              -33.26047839856990
 One-Electron:             -713.82491365516989
 Total Coulomb:            312.72715071070343
 Nuclear repulsion:        203.60258001738694
    3    -230.7512080921      9.05e-04  
Finding J and K together
 Job number = 22, Threshold = 1.00E-08
Integral type ranges set in mkLRange.C for JobNum: 22  <1-21|1-21>
 MakeJK  time:  CPU      16.23 s  wall      17.23 s
 HF Exchange:              -33.24635860339087
 One-Electron:             -713.53374230501026
 Total Coulomb:            312.42135889994745
 Nuclear repulsion:        203.60258001738694
    4    -230.7556613256      3.48e-04  
Finding J and K together
 Job number = 22, Threshold = 1.00E-08
Integral type ranges set in mkLRange.C for JobNum: 22  <1-21|1-21>
 MakeJK  time:  CPU      15.81 s  wall      18.70 s
 HF Exchange:              -33.24741467067090
 One-Electron:             -713.54583879897552
 Total Coulomb:            312.43450087022688
 Nuclear repulsion:        203.60258001738694
    5    -230.7561619911      3.45e-05  
    6    -230.7561725820      6.42e-06  Convergence criterion met
 ---------------------------------------
 SCF time:   CPU 85.73s  wall 90.00s 
 Total energy in the final basis set =     -230.7561725820
 HF Exchange:              -33.24741467067090
 One-Electron:             -713.54583879897552
 Total Coulomb:            312.43450087022688
 Nuclear repulsion:        203.60258001738694
Wall  1 = 91
Clock 1 = 85.88308715820312
 ==================================================
                  Done GEN_SCFMAN                  
 ==================================================

Symmetry turned off temporarily

 --------------------------------------------------------------

                    Orbital Energies (a.u.)
 --------------------------------------------------------------

 Alpha MOs
 -- Occupied --
-11.239 -11.238 -11.238 -11.237 -11.237 -11.236  -1.153  -1.017
 -1.017  -0.825  -0.825  -0.711  -0.644  -0.621  -0.590  -0.589
 -0.502  -0.496  -0.496  -0.337  -0.337
 -- Virtual --
  0.042   0.049   0.049   0.066   0.066   0.088   0.109   0.109
  0.129   0.153   0.153   0.158   0.163   0.181   0.181   0.183
  0.183   0.192   0.209   0.212   0.212   0.216   0.216   0.218
  0.228   0.228   0.250   0.250   0.289   0.289   0.303   0.334
  0.334   0.369   0.408   0.408   0.430   0.430   0.440   0.498
  0.498   0.509   0.509   0.604   0.609   0.715   0.723   0.723
  0.728   0.750   0.751   0.751   0.758   0.758   0.797   0.820
  0.820   0.886   0.940   0.940   0.951   0.951   0.975   1.016
  1.016   1.018   1.059   1.059   1.106   1.121   1.121   1.131
  1.169   1.218   1.218   1.249   1.324   1.324   1.392   1.392
  1.523   1.556   1.712   1.786   1.786   1.796   1.826   1.845
  1.845   1.908   1.908   1.933   1.933   1.990   2.054   2.054
  2.104   2.104   2.129   2.237   2.237   2.239   2.248   2.248
  2.296   2.346   2.346   2.378   2.378   2.638   2.663   2.742
  2.742   2.742   2.814   2.814   2.960   2.960   2.989   2.995
  3.022   3.022   3.046   3.046   3.058   3.090   3.191   3.191
  3.263   3.293   3.293   3.326   3.327   3.482   3.549   3.776
  3.776   3.906   3.906   3.920   4.077   4.405   4.405   4.496
  4.573   4.573   5.278  24.747  25.136  25.136  25.259  25.260
 25.371
 --------------------------------------------------------------

          Ground-State Mulliken Net Atomic Charges

     Atom                 Charge (a.u.)
  ----------------------------------------
      1 H                     0.193293
      2 C                    -0.193133
      3 C                    -0.193444
      4 C                    -0.192957
      5 C                    -0.193364
      6 C                    -0.193245
      7 C                    -0.193404
      8 H                     0.193221
      9 H                     0.193213
     10 H                     0.193217
     11 H                     0.193261
     12 H                     0.193343
  ----------------------------------------
  Sum of atomic charges =    -0.000000

 -----------------------------------------------------------------
                    Cartesian Multipole Moments
 -----------------------------------------------------------------
    Charge (ESU x 10^10)
                -0.0000
    Dipole Moment (Debye)
         X      -0.0000      Y      -0.0002      Z       0.0149
       Tot       0.0149
    Quadrupole Moments (Debye-Ang)
        XX     -31.9286     XY       0.0000     YY     -31.9297
        XZ       0.0001     YZ      -0.0025     ZZ     -41.3229
    Octopole Moments (Debye-Ang^2)
       XXX      -0.0011    XXY       0.0013    XYY       0.0009
       YYY       0.0049    XXZ       0.0782    XYZ      -0.0010
       YYZ       0.0611    XZZ      -0.0002    YZZ      -0.0062
       ZZZ       0.0276
    Hexadecapole Moments (Debye-Ang^3)
      XXXX    -270.6957   XXXY      -0.0012   XXYY     -90.2280
      XYYY       0.0017   YYYY    -270.6603   XXXZ       0.0028
      XXYZ      -0.0030   XYYZ      -0.0017   YYYZ      -0.0192
      XXZZ     -66.1559   XYZZ      -0.0002   YYZZ     -66.1523
      XZZZ       0.0002   YZZZ      -0.0039   ZZZZ     -52.1709
 -----------------------------------------------------------------
 Mayer SCF Bond Order, atomic valence on the diagonal:

            1           2           3           4           5           6
    1   0.9410425   0.7763421   0.0924954  -0.0268164   0.0102152  -0.0267540
    2   0.7763421   4.4388112   1.8343688  -0.0986240   0.0485601  -0.0979847
    3   0.0924954   1.8343688   4.4392193   1.8348544  -0.0981949   0.0485111
    4  -0.0268164  -0.0986240   1.8348544   4.4391556   1.8345133  -0.0986397
    5   0.0102152   0.0485601  -0.0981949   1.8345133   4.4392564   1.8348035
    6  -0.0267540  -0.0979847   0.0485111  -0.0986397   1.8348035   4.4389532
    7   0.0923840   1.8345367  -0.0980874   0.0489010  -0.0982073   1.8342554
    8   0.0109705   0.0924567   0.7762270   0.0926139  -0.0268169   0.0102146
    9   0.0006138  -0.0267609   0.0924823   0.7762996   0.0924913  -0.0267872
   10   0.0000002   0.0102311  -0.0268513   0.0926306   0.7761582   0.0925622
   11   0.0006125  -0.0267183   0.0102014  -0.0267961   0.0925293   0.7763360
   12   0.0109790   0.0924036  -0.0267877   0.0102191  -0.0267954   0.0924362
            7           8           9          10          11          12
    1   0.0923840   0.0109705   0.0006138   0.0000002   0.0006125   0.0109790
    2   1.8345367   0.0924567  -0.0267609   0.0102311  -0.0267183   0.0924036
    3  -0.0980874   0.7762270   0.0924823  -0.0268513   0.0102014  -0.0267877
    4   0.0489010   0.0926139   0.7762996   0.0926306  -0.0267961   0.0102191
    5  -0.0982073  -0.0268169   0.0924913   0.7761582   0.0925293  -0.0267954
    6   1.8342554   0.0102146  -0.0267872   0.0925622   0.7763360   0.0924362
    7   4.4391797  -0.0267394   0.0101992  -0.0267769   0.0923484   0.7763660
    8  -0.0267394   0.9411216   0.0109698   0.0006127   0.0000000   0.0006127
    9   0.0101992   0.0109698   0.9410930   0.0109717   0.0006138  -0.0000005
   10  -0.0267769   0.0006127   0.0109717   0.9411218   0.0109703   0.0006130
   11   0.0923484   0.0000000   0.0006138   0.0109703   0.9410722   0.0109749
   12   0.7763660   0.0006127  -0.0000005   0.0006130   0.0109749   0.9410209


 JobOver = TRUE
Archival summary:
1\1\qciep03\SP\HF\BasisUnspecified\66\jcartus\ThuFeb112:01:002018ThuFeb112:01:002018\0\\#,HF,BasisUnspecified,\\0,1\C\H,1,1.0842\C,1,1.39357,2,119.988\H,3,1.08418,1,120.019,2,0.0201769,0\C,1,1.39367,2,119.994,3,179.773,0\H,5,1.08418,1,120.007,2,-0.0162949,0\C,5,1.3936,1,120.011,2,-179.793,0\H,7,1.08422,5,120.026,1,179.778,0\C,3,1.39384,1,120.004,2,179.804,0\H,9,1.08426,3,120.022,1,-179.818,0\C,7,1.39429,5,119.997,1,-0.0208846,0\H,11,1.08434,7,120.018,5,179.872,0\\HF=-230.756173\\@

 Total job time:  91.62s(wall), 86.47s(cpu) 
 Thu Feb  1 12:01:00 2018

        *************************************************************
        *                                                           *
        *  Thank you very much for using Q-Chem.  Have a nice day.  *
        *                                                           *
        *************************************************************


*** MISSION COMPLETED -- STARFLEET OUT ***

0 sent ACK to 0 
now end server 0 ... 
