Process 0 of 1 is on qciep03 - thread support 0
initial socket setup ...start
initial socket setup ...done 
now start server 0 ... 
qciep03.tugraz.at 127.0.1
Q-Chem Developer Version! Running on 127.0.1.*
                  Welcome to Q-Chem
     A Quantum Leap Into The Future Of Chemistry


 Q-Chem 5.0, Q-Chem, Inc., Pleasanton, CA (2017)

 Yihan Shao,  Zhengting Gan,  E. Epifanovsky,  A. T. B. Gilbert,  M. Wormit,  
 J. Kussmann,  A. W. Lange,  A. Behn,  Jia Deng,  Xintian Feng,  D. Ghosh,  
 M. Goldey,  P. R. Horn,  L. D. Jacobson,  I. Kaliman,  T. Kus,  A. Landau,  
 Jie Liu,  E. I. Proynov,  R. M. Richard,  R. P. Steele,  E. J. Sundstrom,  
 H. L. Woodcock III,  P. M. Zimmerman,  D. Zuev,  B. Albrecht,  E. Alguire,  
 S. A. Baeppler,  D. Barton,  Z. Benda,  Y. A. Bernard,  E. J. Berquist,  
 K. B. Bravaya,  H. Burton,  D. Casanova,  Chun-Min Chang,  Yunqing Chen,  
 A. Chien,  K. D. Closser,  M. P. Coons,  S. Dasgupta,  A. L. Dempwolff,  
 M. Diedenhofen,  Hainam Do,  R. G. Edgar,  Po-Tung Fang,  S. Fatehi,  
 Qingguo Feng,  J. Fosso-Tande,  Qinghui Ge,  A. Ghysels,  G. Gidofalvi,  
 J. Gomes,  J. Gonthier,  A. Gunina,  M. W. D. Hanson-Heine,  
 P. H. P. Harbach,  A. W. Hauser,  J. E. Herr,  E. G. Hohenstein,  
 Z. C. Holden,  Kerwin Hui,  T.-C. Jagau,  Hyunjun Ji,  B. Kaduk,  
 K. Khistyaev,  Jaehoon Kim,  P. Klunzinger,  K. Koh,  D. Kosenkov,  
 L. Koulias,  T. Kowalczyk,  C. M. Krauter,  A. Kunitsa,  Ka Un Lao,  
 A. Laurent,  K. V. Lawler,  Joonho Lee,  D. Lefrancois,  S. Lehtola,  
 D. S. Levine,  Yi-Pei Li,  You-Sheng Lin,  Fenglai Liu,  E. Livshits,  
 A. Luenser,  P. Manohar,  E. Mansoor,  S. F. Manzer,  Shan-Ping Mao,  
 Yuezhi Mao,  N. Mardirossian,  A. V. Marenich,  T. Markovich,  
 L. A. Martinez-Martinez,  S. A. Maurer,  N. J. Mayhall,  S. C. McKenzie,  
 J.-M. Mewes,  A. F. Morrison,  J. W. Mullinax,  K. Nanda,  
 T. S. Nguyen-Beck,  R. Olivares-Amaya,  J. A. Parkhill,  T. M. Perrine,  
 F. Plasser,  S. Prager,  A. Prociuk,  E. Ramos,  D. R. Rehn,  F. Rob,  
 M. Schneider,  N. Sergueev,  S. M. Sharada,  S. Sharma,  D. W. Small,  
 T. Stauch,  T. Stein,  Yu-Chuan Su,  A. J. W. Thom,  A. Tkatchenko,  
 T. Tsuchimochi,  L. Vogt,  O. Vydrov,  M. A. Watson,  J. Wenzel,  
 M. de Wergifosse,  T. A. Wesolowski,  A. White,  J. Witte,  A. Yamada,  
 Jun Yang,  K. Yao,  S. Yeganeh,  S. R. Yost,  Zhi-Qiang You,  A. Zech,  
 Igor Ying Zhang,  Xing Zhang,  Yan Zhao,  Ying Zhu,  B. R. Brooks,  
 G. K. L. Chan,  C. J. Cramer,  M. S. Gordon,  W. J. Hehre,  A. Klamt,  
 M. W. Schmidt,  C. D. Sherrill,  D. G. Truhlar,  A. Aspuru-Guzik,  R. Baer,  
 A. T. Bell,  N. A. Besley,  Jeng-Da Chai,  R. A. DiStasio Jr.,  A. Dreuw,  
 B. D. Dunietz,  T. R. Furlani,  Chao-Ping Hsu,  Yousung Jung,  Jing Kong,  
 D. S. Lambrecht,  WanZhen Liang,  C. Ochsenfeld,  V. A. Rassolov,  
 L. V. Slipchenko,  J. E. Subotnik,  T. Van Voorhis,  J. M. Herbert,  
 A. I. Krylov,  P. M. W. Gill,  M. Head-Gordon

 Contributors to earlier versions of Q-Chem not listed above: 
 R. D. Adamson,  B. Austin,  J. Baker,  G. J. O. Beran,  K. Brandhorst,  
 S. T. Brown,  E. F. C. Byrd,  A. K. Chakraborty,  C.-L. Cheng,  
 Siu Hung Chien,  D. M. Chipman,  D. L. Crittenden,  H. Dachsel,  
 R. J. Doerksen,  A. D. Dutoi,  L. Fusti-Molnar,  W. A. Goddard III,  
 A. Golubeva-Zadorozhnaya,  S. R. Gwaltney,  G. Hawkins,  A. Heyden,  
 S. Hirata,  G. Kedziora,  F. J. Keil,  C. Kelley,  Jihan Kim,  R. A. King,  
 R. Z. Khaliullin,  P. P. Korambath,  W. Kurlancheek,  A. M. Lee,  M. S. Lee,  
 S. V. Levchenko,  Ching Yeh Lin,  D. Liotard,  R. C. Lochan,  I. Lotan,  
 P. E. Maslen,  N. Nair,  D. P. O'Neill,  D. Neuhauser,  E. Neuscamman,  
 C. M. Oana,  R. Olson,  B. Peters,  R. Peverati,  P. A. Pieniazek,  
 Y. M. Rhee,  J. Ritchie,  M. A. Rohrdanz,  E. Rosta,  N. J. Russ,  
 H. F. Schaefer III,  N. E. Schultz,  N. Shenvi,  A. C. Simmonett,  A. Sodt,  
 D. Stuck,  K. S. Thanthiriwatte,  V. Vanovschi,  Tao Wang,  A. Warshel,  
 C. F. Williams,  Q. Wu,  X. Xu,  W. Zhang

 Please cite Q-Chem as follows:
 Y. Shao et al., Mol. Phys. 113, 184-215 (2015)
 DOI: 10.1080/00268976.2014.952696

 Q-Chem 5.0.2 for Intel X86 EM64T Linux

 Parts of Q-Chem use Armadillo 5.200.1 (Boston Tea Smuggler).
 http://arma.sourceforge.net/

 Q-Chem begins on Thu Jan 25 17:52:47 2018  


Host: 0

     Scratch files written to /home/jcartus/scratch/Adenine-thymine-Watson-Crick-complex_mono1.dir//
 Using version located at /usr/local/qchem/bin/qchem

 Parallel job on  1  processors

Total Memory Limit in MB = 2000
Mega-Array Size in MB = 192

Checking the input file for inconsistencies... 	...done.
Finally everything over in PARseQInput

--------------------------------------------------------------
User input:
--------------------------------------------------------------
$rem
SCF_PRINT                     1
BASIS                         6-311++g**
SCF_SAVE_MATRICES             1
SCF_CONVERGENCE               5
SCF_FINAL_PRINT               1
METHOD                        hf
JOBTYPE                       sp
$end

$molecule
0 1
N    1.2754606    -0.6478993    -1.9779104
C    1.4130533    -1.553685    -0.9550667
H    2.4258769    -1.867078    -0.7468778
C    0.3575976    -2.0239499    -0.2530575
C    0.4821292    -3.0179494    0.8521221
H    0.1757705    -2.5756065    1.7986281
H    -0.1601691    -3.8770412    0.6639498
H    1.5112443    -3.3572767    0.9513659
C    -0.9684711    -1.5298112    -0.5939792
O    -2.002928    -1.8396957    -0.0199453
N    -0.9956916    -0.638387    -1.672042
H    -1.9014057    -0.250172    -1.898576
C    0.0684702    -0.1191762    -2.3763759
O    -0.0397875    0.7227006    -3.2531083
H    2.0853289    -0.2760176    -2.4454577
$end


--------------------------------------------------------------
 ----------------------------------------------------------------
             Standard Nuclear Orientation (Angstroms)
    I     Atom           X                Y                Z
 ----------------------------------------------------------------
    1      N       1.1173536526    -1.2343885506    -0.0097541380
    2      C      -0.2342849451    -1.4762521805     0.0030445248
    3      H      -0.5182906918    -2.5186011700     0.0178349014
    4      C      -1.1510837130    -0.4825676941    -0.0018430565
    5      C      -2.6233702651    -0.7220198389    -0.0020721760
    6      H      -3.0706974243    -0.3454762537     0.9163557435
    7      H      -3.0921208442    -0.2027502817    -0.8367138135
    8      H      -2.8410190741    -1.7855821649    -0.0764658052
    9      C      -0.6730019177     0.8923116621    -0.0036897301
   10      O      -1.3870202365     1.8846562382     0.0290895681
   11      N       0.7192940067     1.0220678300    -0.0513642149
   12      H       1.0742037004     1.9679695918    -0.0106759294
   13      C       1.6704894797     0.0262417623    -0.0105714550
   14      O       2.8725727054     0.2326859644     0.0283218213
   15      H       1.7744791340    -1.9943345639     0.0489936150
 ----------------------------------------------------------------
 Molecular Point Group                 C1    NOp =  1
 Largest Abelian Subgroup              C1    NOp =  1
 Nuclear Repulsion Energy =   440.1470087288 hartrees
 There are       33 alpha and       33 beta electrons
 Requested basis set is 6-311++G(d,p)
 There are 84 shells and 240 basis functions

 Total QAlloc Memory Limit   2000 MB
 Mega-Array Size       188 MB
 MEM_STATIC part       192 MB

finished with qalloc call

                       Distance Matrix (Angstroms)
             N (  1)   C (  2)   H (  3)   C (  4)   C (  5)   H (  6)
   C (  2)  1.373167
   H (  3)  2.079735  1.080449
   C (  4)  2.389792  1.352018  2.132193
   C (  5)  3.775658  2.505319  2.767573  1.491632
   H (  6)  4.380367  3.187166  3.470532  2.132323  1.088759
   H (  7)  4.412235  3.239479  3.566233  2.131416  1.089034  1.759000
   H (  8)  3.997121  2.626227  2.437473  2.135251  1.088150  1.764186
   C (  9)  2.779975  2.408861  3.414488  1.455630  2.531799  2.850885
   O ( 10)  4.000230  3.553193  4.488150  2.379154  2.885185  2.931808
   N ( 11)  2.291676  2.674673  3.751365  2.400978  3.770633  4.143754
   H ( 12)  3.202649  3.684426  4.760900  3.310153  4.572545  4.836489
   C ( 13)  1.376644  2.426075  3.356753  2.867096  4.358578  4.845227
   O ( 14)  2.287914  3.545938  4.366652  4.086846  5.578331  6.036997
   H ( 15)  1.006371  2.075007  2.352152  3.293470  4.578479  5.191029
             H (  7)   H (  8)   C (  9)   O ( 10)   N ( 11)   H ( 12)
   H (  8)  1.773805
   C (  9)  2.783025  3.446260
   O ( 10)  2.830945  3.949165  1.222965
   N ( 11)  4.079686  4.534243  1.399142  2.277519
   H ( 12)  4.769971  5.424246  2.051784  2.462955  1.011112
   C ( 13)  4.839153  4.862176  2.498415  3.578218  1.377718  2.031222
   O ( 14)  6.042802  6.060488  3.606554  4.568713  2.294795  2.499372
   H ( 15)  5.260993  4.621920  3.784926  5.004203  3.197213  4.024152
             C ( 13)   O ( 14)
   O ( 14)  1.220302
   H ( 15)  2.024127  2.483114

 Job number = 2, Threshold = 1.00E-08
Integral type ranges set in mkLRange.C for JobNum: 2  <1-21|1-21>
Symmetry turned off temporarily
 Using the largest function pair in Schwarz integrals
Total number of integrals generated =          436794
Symmetry turned back on
 A cutoff of  1.0D-08 yielded   3027 shell pairs
 There are     25529 function pairs (     27432 Cartesian)
 Job number = 11, Threshold = 1.00E-08
Integral type ranges set in mkLRange.C for JobNum: 11  <1-21|22-22>
Total number of integrals generated =          411450
 Smallest overlap matrix eigenvalue = 5.81E-06

 Q-Chem warning in module /usr/local/qchem/stvman/mkSTV.C, line 295:

 Overlap eigenvalue is smaller than square root of threshold

 Multipole matrices computed through 2nd order

 Scale SEOQF with 1.000000e-01/1.000000e-01/1.000000e-01

 Standard Electronic Orientation quadrupole field applied
 Nucleus-field energy     =     0.0000000130 hartrees
 ENuRep (before)= 440.1470087288
 ENucField = 0.0000000130
 ENuRep (after) = 440.1470087418
 Guess from superposition of atomic densities
 Warning:  Energy on first SCF cycle will be non-variational
 SAD guess density has 66.000000 electrons

 ==================================================
    GEN_SCFMAN: A general SCF calculation manager  
                                                   
    Authors:                                       
        -- Eric Jon Sundstrom 2008-2014            
        -- Paul Horn 2010-2015                     
        -- Yuezhi Mao 2012-                        
        -- Dmitri Zuev 2014                        
        -- Alec White 2015-                        
        -- David Stuck 2015                        
        -- Shaama M.S. 2015                        
        -- Shane Yost 2015-                         
        -- Joonho Lee 2016-                        
        -- David Small 2016-                       
        -- Daniel Levine 2016-                     
        -- Susi Lehtola 2017-                      
        -- Hugh Burton 2017-                       
 ==================================================
 Hartree-Fock
Finding J and K together
 Job number = 22, Threshold = 1.00E-08
Integral type ranges set in mkLRange.C for JobNum: 22  <1-21|1-21>
 MakeJK  time:  CPU       8.91 s  wall       9.00 s
 HF Exchange:              -58.73399347478006
 One-Electron:             -1484.79963475570548
 Total Coulomb:            648.37547426737194
 Nuclear repulsion:        440.14700874180869
 A restricted SCF calculation will be
 performed using DIIS
 SCF converges when DIIS error is below 1.0e-05
 ---------------------------------------
  Cycle       Energy         DIIS error
 ---------------------------------------
Finding J and K together
 Job number = 22, Threshold = 1.00E-08
Integral type ranges set in mkLRange.C for JobNum: 22  <1-21|1-21>
 MakeJK  time:  CPU      37.55 s  wall      37.78 s
 HF Exchange:              -57.94643899113181
 One-Electron:             -1486.67854697837652
 Total Coulomb:            653.10136042156387
 Nuclear repulsion:        440.14700874180869
    1    -455.0111452213      4.68e-02  
Finding J and K together
 Job number = 22, Threshold = 1.00E-08
Integral type ranges set in mkLRange.C for JobNum: 22  <1-21|1-21>
 MakeJK  time:  CPU      36.72 s  wall      36.83 s
 HF Exchange:              -57.63186492408715
 One-Electron:             -1488.74169085789890
 Total Coulomb:            654.73655315731082
 Nuclear repulsion:        440.14700874180869
    2    -451.3766168061      5.93e-03  
Finding J and K together
 Job number = 22, Threshold = 1.00E-08
Integral type ranges set in mkLRange.C for JobNum: 22  <1-21|1-21>
 MakeJK  time:  CPU      29.23 s  wall      29.26 s
 HF Exchange:              -57.87520960899266
 One-Electron:             -1488.09487074691106
 Total Coulomb:            654.20144956002923
 Nuclear repulsion:        440.14700874180869
    3    -451.4899938829      5.04e-03  
Finding J and K together
 Job number = 22, Threshold = 1.00E-08
Integral type ranges set in mkLRange.C for JobNum: 22  <1-21|1-21>
 MakeJK  time:  CPU      26.68 s  wall      26.71 s
 HF Exchange:              -57.88392020280349
 One-Electron:             -1488.13080098818841
 Total Coulomb:            654.24200729918755
 Nuclear repulsion:        440.14700874180869
    4    -451.6216220541      5.90e-04  
Finding J and K together
 Job number = 22, Threshold = 1.00E-08
Integral type ranges set in mkLRange.C for JobNum: 22  <1-21|1-21>
 MakeJK  time:  CPU      34.28 s  wall      34.33 s
 HF Exchange:              -57.88635136903790
 One-Electron:             -1488.11294352644722
 Total Coulomb:            654.22608752006124
 Nuclear repulsion:        440.14700874180869
    5    -451.6257051500      1.99e-04  
Finding J and K together
 Job number = 22, Threshold = 1.00E-08
Integral type ranges set in mkLRange.C for JobNum: 22  <1-21|1-21>
 MakeJK  time:  CPU      30.84 s  wall      30.87 s
 HF Exchange:              -57.88942511578963
 One-Electron:             -1488.13659287986616
 Total Coulomb:            654.25268846294955
 Nuclear repulsion:        440.14700874180869
    6    -451.6261986336      7.10e-05  
Finding J and K together
 Job number = 22, Threshold = 1.00E-08
Integral type ranges set in mkLRange.C for JobNum: 22  <1-21|1-21>
 MakeJK  time:  CPU      30.32 s  wall      30.35 s
 HF Exchange:              -57.89005380680855
 One-Electron:             -1488.13185085371265
 Total Coulomb:            654.24854737290093
 Nuclear repulsion:        440.14700874180869
    7    -451.6263207909      3.70e-05  
Finding J and K together
 Job number = 22, Threshold = 1.00E-08
Integral type ranges set in mkLRange.C for JobNum: 22  <1-21|1-21>
 MakeJK  time:  CPU      27.96 s  wall      28.00 s
 HF Exchange:              -57.89009329095833
 One-Electron:             -1488.13146846440804
 Total Coulomb:            654.24820081086193
 Nuclear repulsion:        440.14700874180869
    8    -451.6263485458      1.55e-05  
    9    -451.6263522027      5.14e-06  Convergence criterion met
 ---------------------------------------
 SCF time:   CPU 265.20s  wall 266.00s 
 Total energy in the final basis set =     -451.6263522027
 HF Exchange:              -57.89009329095833
 One-Electron:             -1488.13146846440804
 Total Coulomb:            654.24820081086193
 Nuclear repulsion:        440.14700874180869
Wall  1 = 266
Clock 1 = 265.39636230468750
 ==================================================
                  Done GEN_SCFMAN                  
 ==================================================

Symmetry turned off temporarily

 --------------------------------------------------------------

                    Orbital Energies (a.u.)
 --------------------------------------------------------------

 Alpha MOs
 -- Occupied --
-20.544 -20.544 -15.642 -15.629 -11.421 -11.383 -11.334 -11.264
-11.239  -1.436  -1.401  -1.313  -1.248  -1.114  -0.975  -0.922
 -0.900  -0.777  -0.773  -0.713  -0.678  -0.670  -0.643  -0.621
 -0.596  -0.572  -0.562  -0.555  -0.514  -0.481  -0.450  -0.436
 -0.355
 -- Virtual --
  0.024   0.045   0.059   0.064   0.070   0.085   0.087   0.098
  0.100   0.124   0.129   0.133   0.144   0.150   0.158   0.167
  0.167   0.172   0.182   0.182   0.185   0.204   0.208   0.217
  0.223   0.244   0.249   0.258   0.259   0.279   0.283   0.296
  0.297   0.314   0.315   0.326   0.332   0.351   0.357   0.364
  0.378   0.389   0.398   0.411   0.416   0.420   0.429   0.432
  0.445   0.453   0.474   0.482   0.498   0.527   0.536   0.561
  0.580   0.587   0.661   0.666   0.686   0.731   0.736   0.748
  0.764   0.771   0.779   0.800   0.836   0.839   0.852   0.858
  0.893   0.903   0.935   0.948   0.972   0.990   1.017   1.023
  1.026   1.051   1.063   1.075   1.081   1.126   1.138   1.167
  1.193   1.237   1.250   1.291   1.332   1.348   1.356   1.372
  1.410   1.432   1.438   1.447   1.454   1.467   1.499   1.514
  1.562   1.588   1.625   1.671   1.720   1.763   1.797   1.808
  1.824   1.832   1.842   1.897   1.915   1.935   1.940   1.979
  1.994   2.064   2.069   2.079   2.110   2.130   2.148   2.177
  2.217   2.262   2.277   2.286   2.307   2.395   2.450   2.459
  2.540   2.584   2.603   2.636   2.658   2.737   2.748   2.795
  2.824   2.857   2.870   2.901   2.914   2.943   2.973   3.004
  3.023   3.090   3.137   3.165   3.184   3.187   3.218   3.246
  3.258   3.272   3.314   3.317   3.335   3.364   3.385   3.504
  3.571   3.710   3.751   3.760   3.813   3.848   3.879   3.955
  4.000   4.027   4.051   4.120   4.206   4.252   4.301   4.342
  4.347   4.468   4.646   4.734   5.209   5.290   5.356   5.609
  5.636   5.697   5.779   5.865   6.331   6.373  24.832  24.976
 25.027  25.136  25.306  36.997  37.055  51.718  51.761
 --------------------------------------------------------------

          Ground-State Mulliken Net Atomic Charges

     Atom                 Charge (a.u.)
  ----------------------------------------
      1 N                    -0.530228
      2 C                    -0.130587
      3 H                     0.242802
      4 C                     0.440594
      5 C                    -0.729391
      6 H                     0.177286
      7 H                     0.178384
      8 H                     0.127947
      9 C                     0.314176
     10 O                    -0.420115
     11 N                    -0.569123
     12 H                     0.418629
     13 C                     0.538981
     14 O                    -0.445947
     15 H                     0.386593
  ----------------------------------------
  Sum of atomic charges =     0.000000

 -----------------------------------------------------------------
                    Cartesian Multipole Moments
 -----------------------------------------------------------------
    Charge (ESU x 10^10)
                 0.0000
    Dipole Moment (Debye)
         X      -1.2217      Y      -4.9511      Z       0.0325
       Tot       5.0998
    Quadrupole Moments (Debye-Ang)
        XX     -65.7020     XY       3.5836     YY     -47.8041
        XZ       0.1112     YZ      -0.3513     ZZ     -53.0778
    Octopole Moments (Debye-Ang^2)
       XXX     -41.5166    XXY     -17.5592    XYY      25.4966
       YYY     -23.5414    XXZ      -0.5647    XYZ      -0.0216
       YYZ       0.3523    XZZ       1.8502    YZZ       3.7125
       ZZZ       0.4157
    Hexadecapole Moments (Debye-Ang^3)
      XXXX   -1103.1761   XXXY     -18.5918   XXYY    -226.4892
      XYYY      18.7925   YYYY    -395.5218   XXXZ      -0.8922
      XXYZ      -1.4839   XYYZ       1.6520   YYYZ      -1.4315
      XXZZ    -166.5407   XYZZ      -4.1471   YYZZ     -87.4257
      XZZZ      -0.2234   YZZZ      -0.1015   ZZZZ     -59.2717
 -----------------------------------------------------------------
 Mayer SCF Bond Order, atomic valence on the diagonal:

            1           2           3           4           5           6
    1   2.7606744   0.6972926  -0.0586358   0.2546724   0.0048458   0.0017924
    2   0.6972926   3.7316419   0.7877417   2.0394500   0.6524434  -0.0150091
    3  -0.0586358   0.7877417   0.8859354   0.1091487   0.0383519   0.0002024
    4   0.2546724   2.0394500   0.1091487   3.5241183   0.0303541   0.0110235
    5   0.0048458   0.6524434   0.0383519   0.0303541   3.7473299   0.9253518
    6   0.0017924  -0.0150091   0.0002024   0.0110235   0.9253518   0.8841866
    7   0.0013818  -0.0134985   0.0003923  -0.0157230   0.9360977  -0.0314235
    8  -0.0010902   0.1321452   0.0031132  -0.2325729   1.0670277  -0.0147508
    9  -0.1511531  -0.2008209   0.0049084   1.0093906   0.0533250   0.0164700
   10   0.0071518  -0.0018166   0.0006308   0.0117013   0.0104527  -0.0094658
   11   0.0620455  -0.2059508  -0.0063956   0.1409065   0.0338943  -0.0005133
   12   0.0082887  -0.0299695  -0.0006253   0.0245107   0.0121597   0.0001171
   13   1.1109673  -0.1414192   0.0068568   0.1445875  -0.0072079   0.0001968
   14  -0.0528112   0.0646628   0.0015120  -0.0190345  -0.0141746   0.0002300
   15   0.8759265  -0.0336092  -0.0012663   0.0157034   0.0044082  -0.0000349
            7           8           9          10          11          12
    1   0.0013818  -0.0010902  -0.1511531   0.0071518   0.0620455   0.0082887
    2  -0.0134985   0.1321452  -0.2008209  -0.0018166  -0.2059508  -0.0299695
    3   0.0003923   0.0031132   0.0049084   0.0006308  -0.0063956  -0.0006253
    4  -0.0157230  -0.2325729   1.0093906   0.0117013   0.1409065   0.0245107
    5   0.9360977   1.0670277   0.0533250   0.0104527   0.0338943   0.0121597
    6  -0.0314235  -0.0147508   0.0164700  -0.0094658  -0.0005133   0.0001171
    7   0.8863987  -0.0143643   0.0346886  -0.0100547  -0.0013622   0.0002304
    8  -0.0143643   0.9189606  -0.0186327  -0.0030819   0.0008803   0.0005481
    9   0.0346886  -0.0186327   3.1135152   1.7071328   0.8025125  -0.0344936
   10  -0.0100547  -0.0030819   1.7071328   1.7479822  -0.0064947  -0.0183065
   11  -0.0013622   0.0008803   0.8025125  -0.0064947   2.7133632   0.8685442
   12   0.0002304   0.0005481  -0.0344936  -0.0183065   0.8685442   0.7918866
   13  -0.0002363  -0.0010202  -0.1546163   0.0539410   1.0564442  -0.0274371
   14   0.0002488  -0.0001815   0.0589078   0.0055972  -0.0431038  -0.0118115
   15   0.0000215   0.0009404  -0.0141038   0.0005949   0.0119561   0.0001311
           13          14          15
    1   1.1109673  -0.0528112   0.8759265
    2  -0.1414192   0.0646628  -0.0336092
    3   0.0068568   0.0015120  -0.0012663
    4   0.1445875  -0.0190345   0.0157034
    5  -0.0072079  -0.0141746   0.0044082
    6   0.0001968   0.0002300  -0.0000349
    7  -0.0002363   0.0002488   0.0000215
    8  -0.0010202  -0.0001815   0.0009404
    9  -0.1546163   0.0589078  -0.0141038
   10   0.0539410   0.0055972   0.0005949
   11   1.0564442  -0.0431038   0.0119561
   12  -0.0274371  -0.0118115   0.0001311
   13   3.8227664   1.8014417  -0.0197321
   14   1.8014417   1.7839255  -0.0075577
   15  -0.0197321  -0.0075577   0.8333782


 JobOver = TRUE
Archival summary:
1\1\qciep03\SP\HF\BasisUnspecified\2256\jcartus\ThuJan2517:57:142018ThuJan2517:57:142018\0\\#,HF,BasisUnspecified,\\0,1\N\H,1,1.01111\C,1,1.37772,2,115.636\O,3,1.2203,1,123.971,2,-2.31552,0\N,3,1.37664,1,112.613,2,177.295,0\H,5,1.00637,3,115.415,1,-178.134,0\C,5,1.37317,3,123.835,1,-2.444,0\H,7,1.08045,5,115.391,3,-179.068,0\C,7,1.35202,5,122.546,3,0.903598,0\C,1,1.39914,2,115.765,3,173.723,0\O,10,1.22297,1,120.441,2,2.87234,0\C,9,1.49163,7,123.458,5,179.361,0\H,12,1.08815,9,110.753,7,-4.43178,0\H,12,1.08876,9,110.48,7,115.53,0\H,12,1.08903,9,110.391,7,-125.399,0\\HF=-451.626352\\@

 Total job time:  267.17s(wall), 266.35s(cpu) 
 Thu Jan 25 17:57:14 2018

        *************************************************************
        *                                                           *
        *  Thank you very much for using Q-Chem.  Have a nice day.  *
        *                                                           *
        *************************************************************


*** MISSION COMPLETED -- STARFLEET OUT ***

0 sent ACK to 0 
now end server 0 ... 
