Process 0 of 1 is on qciep03 - thread support 0
initial socket setup ...start
initial socket setup ...done 
now start server 0 ... 
qciep03.tugraz.at 127.0.1
Q-Chem Developer Version! Running on 127.0.1.*
                  Welcome to Q-Chem
     A Quantum Leap Into The Future Of Chemistry


 Q-Chem 5.0, Q-Chem, Inc., Pleasanton, CA (2017)

 Yihan Shao,  Zhengting Gan,  E. Epifanovsky,  A. T. B. Gilbert,  M. Wormit,  
 J. Kussmann,  A. W. Lange,  A. Behn,  Jia Deng,  Xintian Feng,  D. Ghosh,  
 M. Goldey,  P. R. Horn,  L. D. Jacobson,  I. Kaliman,  T. Kus,  A. Landau,  
 Jie Liu,  E. I. Proynov,  R. M. Richard,  R. P. Steele,  E. J. Sundstrom,  
 H. L. Woodcock III,  P. M. Zimmerman,  D. Zuev,  B. Albrecht,  E. Alguire,  
 S. A. Baeppler,  D. Barton,  Z. Benda,  Y. A. Bernard,  E. J. Berquist,  
 K. B. Bravaya,  H. Burton,  D. Casanova,  Chun-Min Chang,  Yunqing Chen,  
 A. Chien,  K. D. Closser,  M. P. Coons,  S. Dasgupta,  A. L. Dempwolff,  
 M. Diedenhofen,  Hainam Do,  R. G. Edgar,  Po-Tung Fang,  S. Fatehi,  
 Qingguo Feng,  J. Fosso-Tande,  Qinghui Ge,  A. Ghysels,  G. Gidofalvi,  
 J. Gomes,  J. Gonthier,  A. Gunina,  M. W. D. Hanson-Heine,  
 P. H. P. Harbach,  A. W. Hauser,  J. E. Herr,  E. G. Hohenstein,  
 Z. C. Holden,  Kerwin Hui,  T.-C. Jagau,  Hyunjun Ji,  B. Kaduk,  
 K. Khistyaev,  Jaehoon Kim,  P. Klunzinger,  K. Koh,  D. Kosenkov,  
 L. Koulias,  T. Kowalczyk,  C. M. Krauter,  A. Kunitsa,  Ka Un Lao,  
 A. Laurent,  K. V. Lawler,  Joonho Lee,  D. Lefrancois,  S. Lehtola,  
 D. S. Levine,  Yi-Pei Li,  You-Sheng Lin,  Fenglai Liu,  E. Livshits,  
 A. Luenser,  P. Manohar,  E. Mansoor,  S. F. Manzer,  Shan-Ping Mao,  
 Yuezhi Mao,  N. Mardirossian,  A. V. Marenich,  T. Markovich,  
 L. A. Martinez-Martinez,  S. A. Maurer,  N. J. Mayhall,  S. C. McKenzie,  
 J.-M. Mewes,  A. F. Morrison,  J. W. Mullinax,  K. Nanda,  
 T. S. Nguyen-Beck,  R. Olivares-Amaya,  J. A. Parkhill,  T. M. Perrine,  
 F. Plasser,  S. Prager,  A. Prociuk,  E. Ramos,  D. R. Rehn,  F. Rob,  
 M. Schneider,  N. Sergueev,  S. M. Sharada,  S. Sharma,  D. W. Small,  
 T. Stauch,  T. Stein,  Yu-Chuan Su,  A. J. W. Thom,  A. Tkatchenko,  
 T. Tsuchimochi,  L. Vogt,  O. Vydrov,  M. A. Watson,  J. Wenzel,  
 M. de Wergifosse,  T. A. Wesolowski,  A. White,  J. Witte,  A. Yamada,  
 Jun Yang,  K. Yao,  S. Yeganeh,  S. R. Yost,  Zhi-Qiang You,  A. Zech,  
 Igor Ying Zhang,  Xing Zhang,  Yan Zhao,  Ying Zhu,  B. R. Brooks,  
 G. K. L. Chan,  C. J. Cramer,  M. S. Gordon,  W. J. Hehre,  A. Klamt,  
 M. W. Schmidt,  C. D. Sherrill,  D. G. Truhlar,  A. Aspuru-Guzik,  R. Baer,  
 A. T. Bell,  N. A. Besley,  Jeng-Da Chai,  R. A. DiStasio Jr.,  A. Dreuw,  
 B. D. Dunietz,  T. R. Furlani,  Chao-Ping Hsu,  Yousung Jung,  Jing Kong,  
 D. S. Lambrecht,  WanZhen Liang,  C. Ochsenfeld,  V. A. Rassolov,  
 L. V. Slipchenko,  J. E. Subotnik,  T. Van Voorhis,  J. M. Herbert,  
 A. I. Krylov,  P. M. W. Gill,  M. Head-Gordon

 Contributors to earlier versions of Q-Chem not listed above: 
 R. D. Adamson,  B. Austin,  J. Baker,  G. J. O. Beran,  K. Brandhorst,  
 S. T. Brown,  E. F. C. Byrd,  A. K. Chakraborty,  C.-L. Cheng,  
 Siu Hung Chien,  D. M. Chipman,  D. L. Crittenden,  H. Dachsel,  
 R. J. Doerksen,  A. D. Dutoi,  L. Fusti-Molnar,  W. A. Goddard III,  
 A. Golubeva-Zadorozhnaya,  S. R. Gwaltney,  G. Hawkins,  A. Heyden,  
 S. Hirata,  G. Kedziora,  F. J. Keil,  C. Kelley,  Jihan Kim,  R. A. King,  
 R. Z. Khaliullin,  P. P. Korambath,  W. Kurlancheek,  A. M. Lee,  M. S. Lee,  
 S. V. Levchenko,  Ching Yeh Lin,  D. Liotard,  R. C. Lochan,  I. Lotan,  
 P. E. Maslen,  N. Nair,  D. P. O'Neill,  D. Neuhauser,  E. Neuscamman,  
 C. M. Oana,  R. Olson,  B. Peters,  R. Peverati,  P. A. Pieniazek,  
 Y. M. Rhee,  J. Ritchie,  M. A. Rohrdanz,  E. Rosta,  N. J. Russ,  
 H. F. Schaefer III,  N. E. Schultz,  N. Shenvi,  A. C. Simmonett,  A. Sodt,  
 D. Stuck,  K. S. Thanthiriwatte,  V. Vanovschi,  Tao Wang,  A. Warshel,  
 C. F. Williams,  Q. Wu,  X. Xu,  W. Zhang

 Please cite Q-Chem as follows:
 Y. Shao et al., Mol. Phys. 113, 184-215 (2015)
 DOI: 10.1080/00268976.2014.952696

 Q-Chem 5.0.2 for Intel X86 EM64T Linux

 Parts of Q-Chem use Armadillo 5.200.1 (Boston Tea Smuggler).
 http://arma.sourceforge.net/

 Q-Chem begins on Thu Feb  1 11:53:15 2018  


Host: 0

     Scratch files written to /home/jcartus/scratch/13_chloromethane-formaldehyde_mono2.dir//
 Using version located at /usr/local/qchem/bin/qchem

 Parallel job on  1  processors

Total Memory Limit in MB = 2000
Mega-Array Size in MB = 192

Checking the input file for inconsistencies... 	...done.
Finally everything over in PARseQInput

--------------------------------------------------------------
User input:
--------------------------------------------------------------
$rem
SCF_PRINT                     1
BASIS                         6-311++g**
SCF_SAVE_MATRICES             1
SCF_CONVERGENCE               5
SCF_FINAL_PRINT               1
METHOD                        hf
JOBTYPE                       sp
$end

$molecule
0 1
O    4.897505466    0.876848804    1.390216211
C    5.194460139    0.238307081    0.405156763
H    6.244196376    0.054496103    0.1283635
H    4.430085674    -0.188680322    -0.260183673
$end


--------------------------------------------------------------
 ----------------------------------------------------------------
             Standard Nuclear Orientation (Angstroms)
    I     Atom           X                Y                Z
 ----------------------------------------------------------------
    1      O       0.6778522461    -0.0001380946     0.0000021426
    2      C      -0.5330398104     0.0002532411    -0.0000088287
    3      H      -1.1128761168    -0.9357686660     0.0000179035
    4      H      -1.1117029898     0.9353539763     0.0000179283
 ----------------------------------------------------------------
 Molecular Point Group                 C1    NOp =  1
 Largest Abelian Subgroup              C1    NOp =  1
 Nuclear Repulsion Energy =    31.2221937886 hartrees
 There are        8 alpha and        8 beta electrons
 Requested basis set is 6-311++G(d,p)
 There are 22 shells and 58 basis functions

 Total QAlloc Memory Limit   2000 MB
 Mega-Array Size       188 MB
 MEM_STATIC part       192 MB

finished with qalloc call

                       Distance Matrix (Angstroms)
             O (  1)   C (  2)   H (  3)
   C (  2)  1.210892
   H (  3)  2.020424  1.101066
   H (  4)  2.019320  1.099666  1.871123

 Job number = 2, Threshold = 1.00E-08
Integral type ranges set in mkLRange.C for JobNum: 2  <1-21|1-21>
Symmetry turned off temporarily
 Using the largest function pair in Schwarz integrals
Total number of integrals generated =           28398
Symmetry turned back on
 A cutoff of  1.0D-08 yielded    253 shell pairs
 There are      1785 function pairs (      1914 Cartesian)
 Job number = 11, Threshold = 1.00E-08
Integral type ranges set in mkLRange.C for JobNum: 11  <1-21|22-22>
Total number of integrals generated =            7656
 Smallest overlap matrix eigenvalue = 2.53E-03
 Multipole matrices computed through 2nd order

 Scale SEOQF with 1.000000e-01/1.000000e-01/1.000000e-01

 Standard Electronic Orientation quadrupole field applied
 Nucleus-field energy     =     0.0000000004 hartrees
 ENuRep (before)= 31.2221937886
 ENucField = 0.0000000004
 ENuRep (after) = 31.2221937891
 Guess from superposition of atomic densities
 Warning:  Energy on first SCF cycle will be non-variational
 SAD guess density has 16.000000 electrons

 ==================================================
    GEN_SCFMAN: A general SCF calculation manager  
                                                   
    Authors:                                       
        -- Eric Jon Sundstrom 2008-2014            
        -- Paul Horn 2010-2015                     
        -- Yuezhi Mao 2012-                        
        -- Dmitri Zuev 2014                        
        -- Alec White 2015-                        
        -- David Stuck 2015                        
        -- Shaama M.S. 2015                        
        -- Shane Yost 2015-                         
        -- Joonho Lee 2016-                        
        -- David Small 2016-                       
        -- Daniel Levine 2016-                     
        -- Susi Lehtola 2017-                      
        -- Hugh Burton 2017-                       
 ==================================================
 Hartree-Fock
Finding J and K together
 Job number = 22, Threshold = 1.00E-08
Integral type ranges set in mkLRange.C for JobNum: 22  <1-21|1-21>
 MakeJK  time:  CPU       0.24 s  wall       0.27 s
 HF Exchange:              -13.89925282186919
 One-Electron:             -216.02540830399096
 Total Coulomb:             84.61429662640352
 Nuclear repulsion:         31.22219378905498
 A restricted SCF calculation will be
 performed using DIIS
 SCF converges when DIIS error is below 1.0e-05
 ---------------------------------------
  Cycle       Energy         DIIS error
 ---------------------------------------
Finding J and K together
 Job number = 22, Threshold = 1.00E-08
Integral type ranges set in mkLRange.C for JobNum: 22  <1-21|1-21>
 MakeJK  time:  CPU       0.38 s  wall       0.42 s
 HF Exchange:              -14.14666652744656
 One-Electron:             -217.56924197672993
 Total Coulomb:             86.66436850017116
 Nuclear repulsion:         31.22219378905498
    1    -114.0881707104      8.12e-02  
Finding J and K together
 Job number = 22, Threshold = 1.00E-08
Integral type ranges set in mkLRange.C for JobNum: 22  <1-21|1-21>
 MakeJK  time:  CPU       0.38 s  wall       0.44 s
 HF Exchange:              -13.96043457564471
 One-Electron:             -216.44550790199489
 Total Coulomb:             85.32129010909232
 Nuclear repulsion:         31.22219378905498
    2    -113.8293462150      1.33e-02  
Finding J and K together
 Job number = 22, Threshold = 1.00E-08
Integral type ranges set in mkLRange.C for JobNum: 22  <1-21|1-21>
 MakeJK  time:  CPU       0.38 s  wall       0.41 s
 HF Exchange:              -14.08200425263020
 One-Electron:             -217.24833946020746
 Total Coulomb:             86.20803814406972
 Nuclear repulsion:         31.22219378905498
    3    -113.8624585795      1.14e-02  
Finding J and K together
 Job number = 22, Threshold = 1.00E-08
Integral type ranges set in mkLRange.C for JobNum: 22  <1-21|1-21>
 MakeJK  time:  CPU       0.36 s  wall       0.36 s
 HF Exchange:              -14.07339807130347
 One-Electron:             -217.14458171396925
 Total Coulomb:             86.09491430225961
 Nuclear repulsion:         31.22219378905498
    4    -113.9001117797      9.92e-04  
Finding J and K together
 Job number = 22, Threshold = 1.00E-08
Integral type ranges set in mkLRange.C for JobNum: 22  <1-21|1-21>
 MakeJK  time:  CPU       0.36 s  wall       0.36 s
 HF Exchange:              -14.07756406626989
 One-Electron:             -217.17884684400931
 Total Coulomb:             86.13319732102684
 Nuclear repulsion:         31.22219378905498
    5    -113.9008716940      3.99e-04  
Finding J and K together
 Job number = 22, Threshold = 1.00E-08
Integral type ranges set in mkLRange.C for JobNum: 22  <1-21|1-21>
 MakeJK  time:  CPU       0.36 s  wall       0.37 s
 HF Exchange:              -14.07664664858932
 One-Electron:             -217.17181284742986
 Total Coulomb:             86.12520449201894
 Nuclear repulsion:         31.22219378905498
    6    -113.9010198002      1.68e-04  
Finding J and K together
 Job number = 22, Threshold = 1.00E-08
Integral type ranges set in mkLRange.C for JobNum: 22  <1-21|1-21>
 MakeJK  time:  CPU       0.36 s  wall       0.37 s
 HF Exchange:              -14.07684352169041
 One-Electron:             -217.17387565111164
 Total Coulomb:             86.12746068992429
 Nuclear repulsion:         31.22219378905498
    7    -113.9010612149      6.18e-05  
    8    -113.9010646938      9.12e-06  Convergence criterion met
 ---------------------------------------
 SCF time:   CPU 2.90s  wall 3.00s 
 Total energy in the final basis set =     -113.9010646938
 HF Exchange:              -14.07684352169041
 One-Electron:             -217.17387565111164
 Total Coulomb:             86.12746068992429
 Nuclear repulsion:         31.22219378905498
Wall  1 = 3
Clock 1 = 2.91467404365540
 ==================================================
                  Done GEN_SCFMAN                  
 ==================================================

Symmetry turned off temporarily

 --------------------------------------------------------------

                    Orbital Energies (a.u.)
 --------------------------------------------------------------

 Alpha MOs
 -- Occupied --
-20.580 -11.346  -1.407  -0.874  -0.696  -0.653  -0.536  -0.445
 -- Virtual --
  0.041   0.064   0.073   0.099   0.157   0.160   0.163   0.246
  0.279   0.299   0.322   0.388   0.389   0.513   0.630   0.637
  0.699   0.830   0.861   1.028   1.239   1.264   1.321   1.392
  1.513   1.658   1.679   1.697   1.888   2.011   2.019   2.120
  2.483   2.690   2.768   2.783   2.941   3.025   3.251   3.279
  3.722   3.806   3.869   4.097   4.280   5.542   5.644   6.208
 25.031  51.616
 --------------------------------------------------------------

          Ground-State Mulliken Net Atomic Charges

     Atom                 Charge (a.u.)
  ----------------------------------------
      1 O                    -0.307288
      2 C                     0.118931
      3 H                     0.094036
      4 H                     0.094321
  ----------------------------------------
  Sum of atomic charges =     0.000000

 -----------------------------------------------------------------
                    Cartesian Multipole Moments
 -----------------------------------------------------------------
    Charge (ESU x 10^10)
                 0.0000
    Dipole Moment (Debye)
         X      -2.9746      Y       0.0021      Z       0.0000
       Tot       2.9746
    Quadrupole Moments (Debye-Ang)
        XX     -12.2178     XY      -0.0011     YY     -11.4729
        XZ      -0.0000     YZ      -0.0000     ZZ     -11.7426
    Octopole Moments (Debye-Ang^2)
       XXX      -0.4208    XXY       0.0017    XYY      -0.8968
       YYY       0.0039    XXZ       0.0000    XYZ       0.0000
       YYZ       0.0001    XZZ       0.3776    YZZ       0.0018
       ZZZ       0.0000
    Hexadecapole Moments (Debye-Ang^3)
      XXXX     -45.4867   XXXY      -0.0052   XXYY     -10.0130
      XYYY      -0.0036   YYYY     -17.5036   XXXZ      -0.0000
      XXYZ      -0.0000   XYYZ      -0.0001   YYYZ       0.0000
      XXZZ      -9.3589   XYZZ      -0.0023   YYZZ      -5.0064
      XZZZ       0.0000   YZZZ       0.0000   ZZZZ     -10.4509
 -----------------------------------------------------------------
 Mayer SCF Bond Order, atomic valence on the diagonal:

            1           2           3           4
    1   1.9255249   1.9470949  -0.0106747  -0.0108954
    2   1.9470949   3.8535440   0.9532655   0.9531836
    3  -0.0106747   0.9532655   0.9293141  -0.0132767
    4  -0.0108954   0.9531836  -0.0132767   0.9290115


 JobOver = TRUE
Archival summary:
1\1\qciep03\SP\HF\BasisUnspecified\112\jcartus\ThuFeb111:53:182018ThuFeb111:53:182018\0\\#,HF,BasisUnspecified,\\0,1\C\H,1,1.09967\H,1,1.10107,2,116.473\O,1,1.21089,2,121.769,3,-179.996,0\\HF=-113.901065\\@

 Total job time:  3.30s(wall), 3.03s(cpu) 
 Thu Feb  1 11:53:18 2018

        *************************************************************
        *                                                           *
        *  Thank you very much for using Q-Chem.  Have a nice day.  *
        *                                                           *
        *************************************************************


*** MISSION COMPLETED -- STARFLEET OUT ***

0 sent ACK to 0 
now end server 0 ... 
