Process 0 of 1 is on qciep03 - thread support 0
initial socket setup ...start
initial socket setup ...done 
now start server 0 ... 
qciep03.tugraz.at 127.0.1
Q-Chem Developer Version! Running on 127.0.1.*
                  Welcome to Q-Chem
     A Quantum Leap Into The Future Of Chemistry


 Q-Chem 5.0, Q-Chem, Inc., Pleasanton, CA (2017)

 Yihan Shao,  Zhengting Gan,  E. Epifanovsky,  A. T. B. Gilbert,  M. Wormit,  
 J. Kussmann,  A. W. Lange,  A. Behn,  Jia Deng,  Xintian Feng,  D. Ghosh,  
 M. Goldey,  P. R. Horn,  L. D. Jacobson,  I. Kaliman,  T. Kus,  A. Landau,  
 Jie Liu,  E. I. Proynov,  R. M. Richard,  R. P. Steele,  E. J. Sundstrom,  
 H. L. Woodcock III,  P. M. Zimmerman,  D. Zuev,  B. Albrecht,  E. Alguire,  
 S. A. Baeppler,  D. Barton,  Z. Benda,  Y. A. Bernard,  E. J. Berquist,  
 K. B. Bravaya,  H. Burton,  D. Casanova,  Chun-Min Chang,  Yunqing Chen,  
 A. Chien,  K. D. Closser,  M. P. Coons,  S. Dasgupta,  A. L. Dempwolff,  
 M. Diedenhofen,  Hainam Do,  R. G. Edgar,  Po-Tung Fang,  S. Fatehi,  
 Qingguo Feng,  J. Fosso-Tande,  Qinghui Ge,  A. Ghysels,  G. Gidofalvi,  
 J. Gomes,  J. Gonthier,  A. Gunina,  M. W. D. Hanson-Heine,  
 P. H. P. Harbach,  A. W. Hauser,  J. E. Herr,  E. G. Hohenstein,  
 Z. C. Holden,  Kerwin Hui,  T.-C. Jagau,  Hyunjun Ji,  B. Kaduk,  
 K. Khistyaev,  Jaehoon Kim,  P. Klunzinger,  K. Koh,  D. Kosenkov,  
 L. Koulias,  T. Kowalczyk,  C. M. Krauter,  A. Kunitsa,  Ka Un Lao,  
 A. Laurent,  K. V. Lawler,  Joonho Lee,  D. Lefrancois,  S. Lehtola,  
 D. S. Levine,  Yi-Pei Li,  You-Sheng Lin,  Fenglai Liu,  E. Livshits,  
 A. Luenser,  P. Manohar,  E. Mansoor,  S. F. Manzer,  Shan-Ping Mao,  
 Yuezhi Mao,  N. Mardirossian,  A. V. Marenich,  T. Markovich,  
 L. A. Martinez-Martinez,  S. A. Maurer,  N. J. Mayhall,  S. C. McKenzie,  
 J.-M. Mewes,  A. F. Morrison,  J. W. Mullinax,  K. Nanda,  
 T. S. Nguyen-Beck,  R. Olivares-Amaya,  J. A. Parkhill,  T. M. Perrine,  
 F. Plasser,  S. Prager,  A. Prociuk,  E. Ramos,  D. R. Rehn,  F. Rob,  
 M. Schneider,  N. Sergueev,  S. M. Sharada,  S. Sharma,  D. W. Small,  
 T. Stauch,  T. Stein,  Yu-Chuan Su,  A. J. W. Thom,  A. Tkatchenko,  
 T. Tsuchimochi,  L. Vogt,  O. Vydrov,  M. A. Watson,  J. Wenzel,  
 M. de Wergifosse,  T. A. Wesolowski,  A. White,  J. Witte,  A. Yamada,  
 Jun Yang,  K. Yao,  S. Yeganeh,  S. R. Yost,  Zhi-Qiang You,  A. Zech,  
 Igor Ying Zhang,  Xing Zhang,  Yan Zhao,  Ying Zhu,  B. R. Brooks,  
 G. K. L. Chan,  C. J. Cramer,  M. S. Gordon,  W. J. Hehre,  A. Klamt,  
 M. W. Schmidt,  C. D. Sherrill,  D. G. Truhlar,  A. Aspuru-Guzik,  R. Baer,  
 A. T. Bell,  N. A. Besley,  Jeng-Da Chai,  R. A. DiStasio Jr.,  A. Dreuw,  
 B. D. Dunietz,  T. R. Furlani,  Chao-Ping Hsu,  Yousung Jung,  Jing Kong,  
 D. S. Lambrecht,  WanZhen Liang,  C. Ochsenfeld,  V. A. Rassolov,  
 L. V. Slipchenko,  J. E. Subotnik,  T. Van Voorhis,  J. M. Herbert,  
 A. I. Krylov,  P. M. W. Gill,  M. Head-Gordon

 Contributors to earlier versions of Q-Chem not listed above: 
 R. D. Adamson,  B. Austin,  J. Baker,  G. J. O. Beran,  K. Brandhorst,  
 S. T. Brown,  E. F. C. Byrd,  A. K. Chakraborty,  C.-L. Cheng,  
 Siu Hung Chien,  D. M. Chipman,  D. L. Crittenden,  H. Dachsel,  
 R. J. Doerksen,  A. D. Dutoi,  L. Fusti-Molnar,  W. A. Goddard III,  
 A. Golubeva-Zadorozhnaya,  S. R. Gwaltney,  G. Hawkins,  A. Heyden,  
 S. Hirata,  G. Kedziora,  F. J. Keil,  C. Kelley,  Jihan Kim,  R. A. King,  
 R. Z. Khaliullin,  P. P. Korambath,  W. Kurlancheek,  A. M. Lee,  M. S. Lee,  
 S. V. Levchenko,  Ching Yeh Lin,  D. Liotard,  R. C. Lochan,  I. Lotan,  
 P. E. Maslen,  N. Nair,  D. P. O'Neill,  D. Neuhauser,  E. Neuscamman,  
 C. M. Oana,  R. Olson,  B. Peters,  R. Peverati,  P. A. Pieniazek,  
 Y. M. Rhee,  J. Ritchie,  M. A. Rohrdanz,  E. Rosta,  N. J. Russ,  
 H. F. Schaefer III,  N. E. Schultz,  N. Shenvi,  A. C. Simmonett,  A. Sodt,  
 D. Stuck,  K. S. Thanthiriwatte,  V. Vanovschi,  Tao Wang,  A. Warshel,  
 C. F. Williams,  Q. Wu,  X. Xu,  W. Zhang

 Please cite Q-Chem as follows:
 Y. Shao et al., Mol. Phys. 113, 184-215 (2015)
 DOI: 10.1080/00268976.2014.952696

 Q-Chem 5.0.2 for Intel X86 EM64T Linux

 Parts of Q-Chem use Armadillo 5.200.1 (Boston Tea Smuggler).
 http://arma.sourceforge.net/

 Q-Chem begins on Thu Jan 25 17:33:00 2018  


Host: 0

     Scratch files written to /home/jcartus/scratch/Benzene-Methane-complex_mono1.dir//
 Using version located at /usr/local/qchem/bin/qchem

 Parallel job on  1  processors

Total Memory Limit in MB = 2000
Mega-Array Size in MB = 192

Checking the input file for inconsistencies... 	...done.
Finally everything over in PARseQInput

--------------------------------------------------------------
User input:
--------------------------------------------------------------
$rem
SCF_PRINT                     1
BASIS                         6-311++g**
SCF_SAVE_MATRICES             1
SCF_CONVERGENCE               5
SCF_FINAL_PRINT               1
METHOD                        hf
JOBTYPE                       sp
$end

$molecule
0 1
C    0.0    0.0    3.0826195
H    0.5868776    0.8381742    3.4463772
H    -1.0193189    0.0891638    3.4463772
H    0.0    0.0    1.9966697
H    0.4324413    -0.927338    3.4463772
$end


--------------------------------------------------------------
 I, IOp=           1           2  D=   4.2903751436738433E-017 Fix sym
 I, IOp=           1           3  D=   4.2903751436738439E-017 Fix sym
 I, IOp=           1           4  D=   7.4841939849207039E-018 Fix sym
 I, IOp=           1           5  D=   4.6153440022863117E-017 Fix sym
 I, IOp=           1           6  D=   3.8669246037942413E-017 Fix sym
 I,J,IOp=           2           3           2  D=   9.6545826972029256E-008 Fix sym
 Atom   3: ( -0.5116056159, -0.8861269079, -0.3632253700)
         ->( -0.5116056359, -0.8861269549, -0.3632253700)
 I,J,IOp=           2           5           3  D=   9.6545826302003073E-008 Fix sym
 Atom   5: ( -0.5116056560,  0.8861269079, -0.3632253700)
         ->( -0.5116056359,  0.8861269549, -0.3632253700)
 I, IOp=           2           4  D=   2.2204460492503131E-016 Fix sym
 I, IOp=           4           2  D=   4.1804799219680247E-016 Fix sym
 I, IOp=           4           3  D=   4.1804799219680247E-016 Fix sym
 I, IOp=           4           4  D=   4.1921981093097525E-016 Fix sym
 I, IOp=           4           5  D=   2.3535753522053821E-018 Fix sym
 I, IOp=           4           6  D=   4.1686623557876984E-016 Fix sym
 ----------------------------------------------------------------
             Standard Nuclear Orientation (Angstroms)
    I     Atom           X                Y                Z
 ----------------------------------------------------------------
    1      C       0.0000000000    -0.0000000000     0.0005323300
    2      H       1.0232112719    -0.0000000000    -0.3632253700
    3      H      -0.5116056359    -0.8861269549    -0.3632253700
    4      H      -0.0000000000    -0.0000000000     1.0864821300
    5      H      -0.5116056359     0.8861269549    -0.3632253700
 ----------------------------------------------------------------
 Molecular Point Group                 C3v   NOp =  6
 Largest Abelian Subgroup              Cs    NOp =  2
 Nuclear Repulsion Energy =    13.4855267070 hartrees
 There are        5 alpha and        5 beta electrons
 Requested basis set is 6-311++G(d,p)
 There are 26 shells and 50 basis functions

 Total QAlloc Memory Limit   2000 MB
 Mega-Array Size       188 MB
 MEM_STATIC part       192 MB

finished with qalloc call

                       Distance Matrix (Angstroms)
             C (  1)   H (  2)   H (  3)   H (  4)
   H (  2)  1.085947
   H (  3)  1.085947  1.772254
   H (  4)  1.085950  1.774433  1.774433
   H (  5)  1.085947  1.772254  1.772254  1.774433

 Job number = 2, Threshold = 1.00E-08
Integral type ranges set in mkLRange.C for JobNum: 2  <1-21|1-21>
Symmetry turned off temporarily
 Using the largest function pair in Schwarz integrals
Total number of integrals generated =           13035
Symmetry turned back on
 A cutoff of  1.0D-08 yielded    351 shell pairs
 There are      1321 function pairs (      1377 Cartesian)
 Job number = 11, Threshold = 1.00E-08
Integral type ranges set in mkLRange.C for JobNum: 11  <1-21|22-22>
Total number of integrals generated =            3895
 Smallest overlap matrix eigenvalue = 1.33E-03
 Multipole matrices computed through 2nd order

 Scale SEOQF with 1.000000e-01/1.000000e-01/1.000000e-01

 Standard Electronic Orientation quadrupole field applied
 ENuRep (before)= 13.485527
 ENucField = -0.000000
 ENuRep (after) = 13.485527
 Guess from superposition of atomic densities
 Warning:  Energy on first SCF cycle will be non-variational
 SAD guess density has 10.000000 electrons

 ==================================================
    GEN_SCFMAN: A general SCF calculation manager  
                                                   
    Authors:                                       
        -- Eric Jon Sundstrom 2008-2014            
        -- Paul Horn 2010-2015                     
        -- Yuezhi Mao 2012-                        
        -- Dmitri Zuev 2014                        
        -- Alec White 2015-                        
        -- David Stuck 2015                        
        -- Shaama M.S. 2015                        
        -- Shane Yost 2015-                         
        -- Joonho Lee 2016-                        
        -- David Small 2016-                       
        -- Daniel Levine 2016-                     
        -- Susi Lehtola 2017-                      
        -- Hugh Burton 2017-                       
 ==================================================
 Hartree-Fock
Finding J and K together
 Job number = 22, Threshold = 1.00E-08
Integral type ranges set in mkLRange.C for JobNum: 22  <1-21|1-21>
 MakeJK  time:  CPU       0.17 s  wall       0.18 s
 HF Exchange:               -6.48591704015702
 One-Electron:             -78.38814499745828
 Total Coulomb:             31.13644399595213
 Nuclear repulsion:         13.48552670696003
 A restricted SCF calculation will be
 performed using DIIS
 SCF converges when DIIS error is below 1.0e-05
 ---------------------------------------
  Cycle       Energy         DIIS error
 ---------------------------------------
Finding J and K together
 Job number = 22, Threshold = 1.00E-08
Integral type ranges set in mkLRange.C for JobNum: 22  <1-21|1-21>
 MakeJK  time:  CPU       0.22 s  wall       0.24 s
 HF Exchange:               -6.57902198887939
 One-Electron:             -80.02669391323766
 Total Coulomb:             32.92295410933081
 Nuclear repulsion:         13.48552670696003
    1     -40.2520913347      7.40e-02  
Finding J and K together
 Job number = 22, Threshold = 1.00E-08
Integral type ranges set in mkLRange.C for JobNum: 22  <1-21|1-21>
 MakeJK  time:  CPU       0.22 s  wall       0.23 s
 HF Exchange:               -6.56897662689215
 One-Electron:             -79.69648798024416
 Total Coulomb:             32.57191983443789
 Nuclear repulsion:         13.48552670696003
    2     -40.1972350858      5.57e-03  
Finding J and K together
 Job number = 22, Threshold = 1.00E-08
Integral type ranges set in mkLRange.C for JobNum: 22  <1-21|1-21>
 MakeJK  time:  CPU       0.22 s  wall       0.26 s
 HF Exchange:               -6.59488218049745
 One-Electron:             -79.85098440209754
 Total Coulomb:             32.75133037702058
 Nuclear repulsion:         13.48552670696003
    3     -40.2080180657      1.60e-03  
Finding J and K together
 Job number = 22, Threshold = 1.00E-08
Integral type ranges set in mkLRange.C for JobNum: 22  <1-21|1-21>
 MakeJK  time:  CPU       0.23 s  wall       0.24 s
 HF Exchange:               -6.59383799361313
 One-Electron:             -79.81268917120374
 Total Coulomb:             32.71186284815701
 Nuclear repulsion:         13.48552670696003
    4     -40.2090094986      5.24e-04  
Finding J and K together
 Job number = 22, Threshold = 1.00E-08
Integral type ranges set in mkLRange.C for JobNum: 22  <1-21|1-21>
 MakeJK  time:  CPU       0.22 s  wall       0.27 s
 HF Exchange:               -6.59466572458093
 One-Electron:             -79.81417650516801
 Total Coulomb:             32.71417416723968
 Nuclear repulsion:         13.48552670696003
    5     -40.2091376097      6.93e-05  
    6     -40.2091413555      6.65e-06  Convergence criterion met
 ---------------------------------------
 SCF time:   CPU 1.31s  wall 2.00s 
 Total energy in the final basis set =      -40.2091413555
 HF Exchange:               -6.59466572458093
 One-Electron:             -79.81417650516801
 Total Coulomb:             32.71417416723968
 Nuclear repulsion:         13.48552670696003
Wall  1 = 2
Clock 1 = 1.32016694545746
 ==================================================
                  Done GEN_SCFMAN                  
 ==================================================

Symmetry turned off temporarily

 --------------------------------------------------------------
             Orbital Energies (a.u.) and Symmetries
 --------------------------------------------------------------

 Alpha MOs, Restricted
 -- Occupied --                  
-11.206  -0.944  -0.546  -0.545  -0.545
  1 A1    2 A1    3 A1    1 E     1 E                                          
 -- Virtual --                   
  0.042   0.078   0.078   0.078   0.153   0.153   0.153   0.190
  4 A1    5 A1    2 E     2 E     3 E     3 E     6 A1    7 A1                 
  0.309   0.309   0.309   0.382   0.551   0.551   0.551   0.866
  8 A1    4 E     4 E     9 A1    5 E     5 E    10 A1   11 A1                 
  0.875   0.875   0.876   1.037   1.202   1.202   1.726   1.726
  6 E     6 E    12 A1   13 A1    7 E     7 E     8 E     8 E                  
  1.727   1.807   1.808   1.808   2.206   2.206   2.208   2.628
  1 A2   14 A1    9 E     9 E    10 E    10 E    15 A1   11 E                  
  2.628   2.692   2.798   2.798   2.798   2.940   2.940   2.940
 11 E    16 A1   17 A1   12 E    12 E    13 E    13 E    18 A1                 
  3.270   4.212   4.212   4.213  25.213
 19 A1   14 E    14 E    20 A1   21 A1                                         

 Beta MOs, Restricted
 -- Occupied --                  
-11.206  -0.944  -0.546  -0.545  -0.545
  1 A1    2 A1    3 A1    1 E     1 E                                          
 -- Virtual --                   
  0.042   0.078   0.078   0.078   0.153   0.153   0.153   0.190
  4 A1    5 A1    2 E     2 E     3 E     3 E     6 A1    7 A1                 
  0.309   0.309   0.309   0.382   0.551   0.551   0.551   0.866
  8 A1    4 E     4 E     9 A1    5 E     5 E    10 A1   11 A1                 
  0.875   0.875   0.876   1.037   1.202   1.202   1.726   1.726
  6 E     6 E    12 A1   13 A1    7 E     7 E     8 E     8 E                  
  1.727   1.807   1.808   1.808   2.206   2.206   2.208   2.628
  1 A2   14 A1    9 E     9 E    10 E    10 E    15 A1   11 E                  
  2.628   2.692   2.798   2.798   2.798   2.940   2.940   2.940
 11 E    16 A1   17 A1   12 E    12 E    13 E    13 E    18 A1                 
  3.270   4.212   4.212   4.213  25.213
 19 A1   14 E    14 E    20 A1   21 A1                                         
 --------------------------------------------------------------

          Ground-State Mulliken Net Atomic Charges

     Atom                 Charge (a.u.)
  ----------------------------------------
      1 C                    -0.468662
      2 H                     0.117175
      3 H                     0.117175
      4 H                     0.117136
      5 H                     0.117175
  ----------------------------------------
  Sum of atomic charges =     0.000000

 -----------------------------------------------------------------
                    Cartesian Multipole Moments
 -----------------------------------------------------------------
    Charge (ESU x 10^10)
                -0.0000
    Dipole Moment (Debye)
         X       0.0000      Y       0.0000      Z      -0.0017
       Tot       0.0017
    Quadrupole Moments (Debye-Ang)
        XX      -8.4267     XY      -0.0000     YY      -8.4267
        XZ      -0.0000     YZ      -0.0000     ZZ      -8.4160
    Octopole Moments (Debye-Ang^2)
       XXX       0.5544    XXY      -0.0000    XYY      -0.5544
       YYY      -0.0000    XXZ      -0.3960    XYZ       0.0000
       YYZ      -0.3960    XZZ       0.0000    YZZ      -0.0000
       ZZZ       0.7878
    Hexadecapole Moments (Debye-Ang^3)
      XXXX     -15.8282   XXXY      -0.0000   XXYY      -5.2761
      XYYY      -0.0000   YYYY     -15.8282   XXXZ      -0.3549
      XXYZ      -0.0000   XYYZ       0.3549   YYYZ      -0.0000
      XXZZ      -5.5246   XYZZ      -0.0000   YYZZ      -5.5246
      XZZZ      -0.0000   YZZZ      -0.0000   ZZZZ     -15.5771
 -----------------------------------------------------------------
 Mayer SCF Bond Order, atomic valence on the diagonal:

            1           2           3           4           5
    1   3.8986264   0.9746126   0.9746126   0.9747886   0.9746126
    2   0.9746126   0.9265548  -0.0160554  -0.0159470  -0.0160554
    3   0.9746126  -0.0160554   0.9265548  -0.0159470  -0.0160554
    4   0.9747886  -0.0159470  -0.0159470   0.9269475  -0.0159470
    5   0.9746126  -0.0160554  -0.0160554  -0.0159470   0.9265548


 JobOver = TRUE
Archival summary:
1\1\qciep03\SP\HF\BasisUnspecified\14\jcartus\ThuJan2517:33:022018ThuJan2517:33:022018\0\\#,HF,BasisUnspecified,\\0,1\C\H,1,1.08595\H,1,1.08595,2,109.372\H,1,1.08595,2,109.372,3,119.757,0\H,1,1.08595,2,109.571,3,-120.122,0\\HF=-40.2091414\\@

 Total job time:  1.71s(wall), 1.46s(cpu) 
 Thu Jan 25 17:33:02 2018

        *************************************************************
        *                                                           *
        *  Thank you very much for using Q-Chem.  Have a nice day.  *
        *                                                           *
        *************************************************************


*** MISSION COMPLETED -- STARFLEET OUT ***

0 sent ACK to 0 
now end server 0 ... 
