Process 0 of 1 is on qciep03 - thread support 0
initial socket setup ...start
initial socket setup ...done 
now start server 0 ... 
qciep03.tugraz.at 127.0.1
Q-Chem Developer Version! Running on 127.0.1.*
                  Welcome to Q-Chem
     A Quantum Leap Into The Future Of Chemistry


 Q-Chem 5.0, Q-Chem, Inc., Pleasanton, CA (2017)

 Yihan Shao,  Zhengting Gan,  E. Epifanovsky,  A. T. B. Gilbert,  M. Wormit,  
 J. Kussmann,  A. W. Lange,  A. Behn,  Jia Deng,  Xintian Feng,  D. Ghosh,  
 M. Goldey,  P. R. Horn,  L. D. Jacobson,  I. Kaliman,  T. Kus,  A. Landau,  
 Jie Liu,  E. I. Proynov,  R. M. Richard,  R. P. Steele,  E. J. Sundstrom,  
 H. L. Woodcock III,  P. M. Zimmerman,  D. Zuev,  B. Albrecht,  E. Alguire,  
 S. A. Baeppler,  D. Barton,  Z. Benda,  Y. A. Bernard,  E. J. Berquist,  
 K. B. Bravaya,  H. Burton,  D. Casanova,  Chun-Min Chang,  Yunqing Chen,  
 A. Chien,  K. D. Closser,  M. P. Coons,  S. Dasgupta,  A. L. Dempwolff,  
 M. Diedenhofen,  Hainam Do,  R. G. Edgar,  Po-Tung Fang,  S. Fatehi,  
 Qingguo Feng,  J. Fosso-Tande,  Qinghui Ge,  A. Ghysels,  G. Gidofalvi,  
 J. Gomes,  J. Gonthier,  A. Gunina,  M. W. D. Hanson-Heine,  
 P. H. P. Harbach,  A. W. Hauser,  J. E. Herr,  E. G. Hohenstein,  
 Z. C. Holden,  Kerwin Hui,  T.-C. Jagau,  Hyunjun Ji,  B. Kaduk,  
 K. Khistyaev,  Jaehoon Kim,  P. Klunzinger,  K. Koh,  D. Kosenkov,  
 L. Koulias,  T. Kowalczyk,  C. M. Krauter,  A. Kunitsa,  Ka Un Lao,  
 A. Laurent,  K. V. Lawler,  Joonho Lee,  D. Lefrancois,  S. Lehtola,  
 D. S. Levine,  Yi-Pei Li,  You-Sheng Lin,  Fenglai Liu,  E. Livshits,  
 A. Luenser,  P. Manohar,  E. Mansoor,  S. F. Manzer,  Shan-Ping Mao,  
 Yuezhi Mao,  N. Mardirossian,  A. V. Marenich,  T. Markovich,  
 L. A. Martinez-Martinez,  S. A. Maurer,  N. J. Mayhall,  S. C. McKenzie,  
 J.-M. Mewes,  A. F. Morrison,  J. W. Mullinax,  K. Nanda,  
 T. S. Nguyen-Beck,  R. Olivares-Amaya,  J. A. Parkhill,  T. M. Perrine,  
 F. Plasser,  S. Prager,  A. Prociuk,  E. Ramos,  D. R. Rehn,  F. Rob,  
 M. Schneider,  N. Sergueev,  S. M. Sharada,  S. Sharma,  D. W. Small,  
 T. Stauch,  T. Stein,  Yu-Chuan Su,  A. J. W. Thom,  A. Tkatchenko,  
 T. Tsuchimochi,  L. Vogt,  O. Vydrov,  M. A. Watson,  J. Wenzel,  
 M. de Wergifosse,  T. A. Wesolowski,  A. White,  J. Witte,  A. Yamada,  
 Jun Yang,  K. Yao,  S. Yeganeh,  S. R. Yost,  Zhi-Qiang You,  A. Zech,  
 Igor Ying Zhang,  Xing Zhang,  Yan Zhao,  Ying Zhu,  B. R. Brooks,  
 G. K. L. Chan,  C. J. Cramer,  M. S. Gordon,  W. J. Hehre,  A. Klamt,  
 M. W. Schmidt,  C. D. Sherrill,  D. G. Truhlar,  A. Aspuru-Guzik,  R. Baer,  
 A. T. Bell,  N. A. Besley,  Jeng-Da Chai,  R. A. DiStasio Jr.,  A. Dreuw,  
 B. D. Dunietz,  T. R. Furlani,  Chao-Ping Hsu,  Yousung Jung,  Jing Kong,  
 D. S. Lambrecht,  WanZhen Liang,  C. Ochsenfeld,  V. A. Rassolov,  
 L. V. Slipchenko,  J. E. Subotnik,  T. Van Voorhis,  J. M. Herbert,  
 A. I. Krylov,  P. M. W. Gill,  M. Head-Gordon

 Contributors to earlier versions of Q-Chem not listed above: 
 R. D. Adamson,  B. Austin,  J. Baker,  G. J. O. Beran,  K. Brandhorst,  
 S. T. Brown,  E. F. C. Byrd,  A. K. Chakraborty,  C.-L. Cheng,  
 Siu Hung Chien,  D. M. Chipman,  D. L. Crittenden,  H. Dachsel,  
 R. J. Doerksen,  A. D. Dutoi,  L. Fusti-Molnar,  W. A. Goddard III,  
 A. Golubeva-Zadorozhnaya,  S. R. Gwaltney,  G. Hawkins,  A. Heyden,  
 S. Hirata,  G. Kedziora,  F. J. Keil,  C. Kelley,  Jihan Kim,  R. A. King,  
 R. Z. Khaliullin,  P. P. Korambath,  W. Kurlancheek,  A. M. Lee,  M. S. Lee,  
 S. V. Levchenko,  Ching Yeh Lin,  D. Liotard,  R. C. Lochan,  I. Lotan,  
 P. E. Maslen,  N. Nair,  D. P. O'Neill,  D. Neuhauser,  E. Neuscamman,  
 C. M. Oana,  R. Olson,  B. Peters,  R. Peverati,  P. A. Pieniazek,  
 Y. M. Rhee,  J. Ritchie,  M. A. Rohrdanz,  E. Rosta,  N. J. Russ,  
 H. F. Schaefer III,  N. E. Schultz,  N. Shenvi,  A. C. Simmonett,  A. Sodt,  
 D. Stuck,  K. S. Thanthiriwatte,  V. Vanovschi,  Tao Wang,  A. Warshel,  
 C. F. Williams,  Q. Wu,  X. Xu,  W. Zhang

 Please cite Q-Chem as follows:
 Y. Shao et al., Mol. Phys. 113, 184-215 (2015)
 DOI: 10.1080/00268976.2014.952696

 Q-Chem 5.0.2 for Intel X86 EM64T Linux

 Parts of Q-Chem use Armadillo 5.200.1 (Boston Tea Smuggler).
 http://arma.sourceforge.net/

 Q-Chem begins on Thu Feb  1 12:09:30 2018  


Host: 0

     Scratch files written to /home/jcartus/scratch/06_chloromethane-methane.dir//
 Using version located at /usr/local/qchem/bin/qchem

 Parallel job on  1  processors

Total Memory Limit in MB = 2000
Mega-Array Size in MB = 192

Checking the input file for inconsistencies... 	...done.
Finally everything over in PARseQInput

--------------------------------------------------------------
User input:
--------------------------------------------------------------
$rem
SCF_PRINT                     1
BASIS                         6-311++g**
SCF_SAVE_MATRICES             1
SCF_CONVERGENCE               5
SCF_FINAL_PRINT               1
METHOD                        hf
JOBTYPE                       sp
$end

$molecule
0 1
C    0.052125307    -0.031919514    1.840660293
Cl    -1.491715802    0.847207403    1.755184684
H    0.81190911    0.554725768    1.338264649
H    -0.067811208    -0.989274688    1.347792712
H    0.311197296    -0.173143788    2.883203118
C    0.039754322    -0.020606284    -1.70731459
H    -0.032276711    0.011046812    -2.789939015
H    -0.826637179    -0.533296965    -1.301345967
H    0.944658983    -0.549439507    -1.423219897
H    0.069552712    0.991693192    -1.316575906
$end


--------------------------------------------------------------
 ----------------------------------------------------------------
             Standard Nuclear Orientation (Angstroms)
    I     Atom           X                Y                Z
 ----------------------------------------------------------------
    1      C      -0.6637344102    -1.1284468615     0.0000154577
    2      Cl     -1.2218584330     0.5603731883    -0.0000069415
    3      H      -0.0611225235    -1.2930323299     0.8852250572
    4      H      -0.0719498612    -1.2966568650    -0.8917965132
    5      H      -1.5308238965    -1.7781166445     0.0065827145
    6      C       2.6417786982     0.1607350065    -0.0000254185
    7      H       3.6241018456     0.6224937827    -0.0093044619
    8      H       2.0827721238     0.4805652053    -0.8738198931
    9      H       2.7529208154    -0.9194232233    -0.0115339425
   10      H       2.1074291295     0.4640970042     0.8948248086
 ----------------------------------------------------------------
 Molecular Point Group                 C1    NOp =  1
 Largest Abelian Subgroup              C1    NOp =  1
 Nuclear Repulsion Energy =   101.4084209105 hartrees
 There are       18 alpha and       18 beta electrons
 Requested basis set is 6-311++G(d,p)
 There are 60 shells and 123 basis functions

 Total QAlloc Memory Limit   2000 MB
 Mega-Array Size       188 MB
 MEM_STATIC part       192 MB

finished with qalloc call

                       Distance Matrix (Angstroms)
             C (  1)   Cl(  2)   H (  3)   H (  4)   H (  5)   C (  6)
   Cl(  2)  1.778656
   H (  3)  1.083432  2.359249
   H (  4)  1.083435  2.359267  1.777058
   H (  5)  1.083493  2.358821  1.779703  1.779664
   C (  6)  3.548014  3.884251  3.194180  3.206801  4.601065
   H (  7)  4.631568  4.846367  4.248565  4.257080  5.686514  1.085480
   H (  8)  3.300880  3.419138  3.291834  2.793147  4.351417  1.085494
   H (  9)  3.423063  4.241321  2.977012  2.982794  4.368999  1.085922
   H ( 10)  3.319070  3.448789  2.791095  3.322945  4.365018  1.085502
             H (  7)   H (  8)   H (  9)
   H (  8)  1.772915
   H (  9)  1.771008  1.775557
   H ( 10)  1.772804  1.768893  1.775464

 Job number = 2, Threshold = 1.00E-08
Integral type ranges set in mkLRange.C for JobNum: 2  <1-21|1-21>
Symmetry turned off temporarily
 Using the largest function pair in Schwarz integrals
Total number of integrals generated =           71846
Symmetry turned back on
 A cutoff of  1.0D-08 yielded   1618 shell pairs
 There are      6822 function pairs (      7154 Cartesian)
 Job number = 11, Threshold = 1.00E-08
Integral type ranges set in mkLRange.C for JobNum: 11  <1-21|22-22>
Total number of integrals generated =           71420
 Smallest overlap matrix eigenvalue = 2.26E-04
 Multipole matrices computed through 2nd order

 Scale SEOQF with 1.000000e-01/1.000000e-01/1.000000e-01

 Standard Electronic Orientation quadrupole field applied
 Nucleus-field energy     =     0.0000000048 hartrees
 ENuRep (before)= 101.4084209105
 ENucField = 0.0000000048
 ENuRep (after) = 101.4084209153
 Guess from superposition of atomic densities
 Warning:  Energy on first SCF cycle will be non-variational
 SAD guess density has 36.000000 electrons

 ==================================================
    GEN_SCFMAN: A general SCF calculation manager  
                                                   
    Authors:                                       
        -- Eric Jon Sundstrom 2008-2014            
        -- Paul Horn 2010-2015                     
        -- Yuezhi Mao 2012-                        
        -- Dmitri Zuev 2014                        
        -- Alec White 2015-                        
        -- David Stuck 2015                        
        -- Shaama M.S. 2015                        
        -- Shane Yost 2015-                         
        -- Joonho Lee 2016-                        
        -- David Small 2016-                       
        -- Daniel Levine 2016-                     
        -- Susi Lehtola 2017-                      
        -- Hugh Burton 2017-                       
 ==================================================
 Hartree-Fock
Finding J and K together
 Job number = 22, Threshold = 1.00E-08
Integral type ranges set in mkLRange.C for JobNum: 22  <1-21|1-21>
 MakeJK  time:  CPU       1.17 s  wall       1.18 s
 HF Exchange:              -40.24087911191235
 One-Electron:             -939.99469357891905
 Total Coulomb:            339.17708090285237
 Nuclear repulsion:        101.40842091527792
 A restricted SCF calculation will be
 performed using DIIS
 SCF converges when DIIS error is below 1.0e-05
 ---------------------------------------
  Cycle       Energy         DIIS error
 ---------------------------------------
Finding J and K together
 Job number = 22, Threshold = 1.00E-08
Integral type ranges set in mkLRange.C for JobNum: 22  <1-21|1-21>
 MakeJK  time:  CPU       3.20 s  wall       3.21 s
 HF Exchange:              -40.34956084168783
 One-Electron:             -943.27830150614420
 Total Coulomb:            342.91365573875123
 Nuclear repulsion:        101.40842091527792
    1    -539.6500708727      4.60e-02  
Finding J and K together
 Job number = 22, Threshold = 1.00E-08
Integral type ranges set in mkLRange.C for JobNum: 22  <1-21|1-21>
 MakeJK  time:  CPU       4.34 s  wall       4.40 s
 HF Exchange:              -40.37680126497082
 One-Electron:             -942.94770706033842
 Total Coulomb:            342.57990410738699
 Nuclear repulsion:        101.40842091527792
    2    -539.3057856938      3.73e-03  
Finding J and K together
 Job number = 22, Threshold = 1.00E-08
Integral type ranges set in mkLRange.C for JobNum: 22  <1-21|1-21>
 MakeJK  time:  CPU       4.07 s  wall       4.10 s
 HF Exchange:              -40.40190077068623
 One-Electron:             -943.07167615740775
 Total Coulomb:            342.72482486074040
 Nuclear repulsion:        101.40842091527792
    3    -539.3361833026      1.48e-03  
Finding J and K together
 Job number = 22, Threshold = 1.00E-08
Integral type ranges set in mkLRange.C for JobNum: 22  <1-21|1-21>
 MakeJK  time:  CPU       3.96 s  wall       4.04 s
 HF Exchange:              -40.41085299875146
 One-Electron:             -943.07969022698785
 Total Coulomb:            342.74129974892264
 Nuclear repulsion:        101.40842091527792
    4    -539.3403311521      4.08e-04  
Finding J and K together
 Job number = 22, Threshold = 1.00E-08
Integral type ranges set in mkLRange.C for JobNum: 22  <1-21|1-21>
 MakeJK  time:  CPU       4.70 s  wall       4.85 s
 HF Exchange:              -40.41050093487254
 One-Electron:             -943.06190172390507
 Total Coulomb:            342.72314202409166
 Nuclear repulsion:        101.40842091527792
    5    -539.3408225615      6.32e-05  
Finding J and K together
 Job number = 22, Threshold = 1.00E-08
Integral type ranges set in mkLRange.C for JobNum: 22  <1-21|1-21>
 MakeJK  time:  CPU       3.64 s  wall       3.65 s
 HF Exchange:              -40.41118509203109
 One-Electron:             -943.06584776352236
 Total Coulomb:            342.72777072113234
 Nuclear repulsion:        101.40842091527792
    6    -539.3408397194      2.00e-05  
    7    -539.3408412191      5.55e-06  Convergence criterion met
 ---------------------------------------
 SCF time:   CPU 25.42s  wall 26.00s 
 Total energy in the final basis set =     -539.3408412191
 HF Exchange:              -40.41118509203109
 One-Electron:             -943.06584776352236
 Total Coulomb:            342.72777072113234
 Nuclear repulsion:        101.40842091527792
Wall  1 = 26
Clock 1 = 25.48687171936035
 ==================================================
                  Done GEN_SCFMAN                  
 ==================================================

Symmetry turned off temporarily

 --------------------------------------------------------------

                    Orbital Energies (a.u.)
 --------------------------------------------------------------

 Alpha MOs
 -- Occupied --
******* -11.291 -11.208 -10.550  -8.018  -8.015  -8.015  -1.131
 -0.947  -0.916  -0.621  -0.620  -0.550  -0.548  -0.547  -0.545
 -0.436  -0.435
 -- Virtual --
  0.038   0.052   0.072   0.072   0.082   0.098   0.098   0.120
  0.135   0.143   0.169   0.171   0.172   0.179   0.181   0.199
  0.223   0.233   0.250   0.268   0.270   0.296   0.314   0.334
  0.361   0.387   0.419   0.531   0.538   0.548   0.556   0.557
  0.626   0.627   0.699   0.709   0.816   0.838   0.865   0.878
  0.881   0.886   0.958   1.054   1.061   1.069   1.109   1.150
  1.164   1.173   1.214   1.235   1.404   1.410   1.429   1.685
  1.724   1.726   1.726   1.793   1.812   1.817   1.825   1.891
  1.988   2.002   2.014   2.207   2.208   2.238   2.264   2.434
  2.447   2.627   2.630   2.691   2.698   2.716   2.751   2.779
  2.796   2.809   2.815   2.828   2.889   2.915   2.940   2.948
  2.949   2.982   3.236   3.343   3.632   4.120   4.135   4.211
  4.212   4.223  10.439  25.029  25.218  26.750  26.830  27.218
219.294
 --------------------------------------------------------------

          Ground-State Mulliken Net Atomic Charges

     Atom                 Charge (a.u.)
  ----------------------------------------
      1 C                    -0.530715
      2 Cl                    0.030156
      3 H                     0.168954
      4 H                     0.169182
      5 H                     0.171420
      6 C                    -0.502898
      7 H                     0.128598
      8 H                     0.124910
      9 H                     0.115048
     10 H                     0.125343
  ----------------------------------------
  Sum of atomic charges =     0.000000

 -----------------------------------------------------------------
                    Cartesian Multipole Moments
 -----------------------------------------------------------------
    Charge (ESU x 10^10)
                 0.0000
    Dipole Moment (Debye)
         X       0.7204      Y      -2.0457      Z      -0.0003
       Tot       2.1689
    Quadrupole Moments (Debye-Ang)
        XX     -29.8640     XY       1.7882     YY     -26.6978
        XZ      -0.0019     YZ      -0.0003     ZZ     -28.5376
    Octopole Moments (Debye-Ang^2)
       XXX      -3.0340    XXY      -1.1418    XYY      -4.5076
       YYY      -0.4770    XXZ      -0.0078    XYZ       0.0092
       YYZ      -0.0140    XZZ      -1.2623    YZZ      -0.6513
       ZZZ       0.0188
    Hexadecapole Moments (Debye-Ang^3)
      XXXX    -530.3155   XXXY       7.8340   XXYY    -103.8456
      XYYY      -3.3020   YYYY    -125.5286   XXXZ      -0.1776
      XXYZ      -0.0145   XYYZ      -0.0510   YYYZ      -0.0019
      XXZZ    -100.6753   XYZZ       0.0299   YYZZ     -29.3071
      XZZZ       0.0827   YZZZ       0.0338   ZZZZ     -44.7834
 -----------------------------------------------------------------
 Mayer SCF Bond Order, atomic valence on the diagonal:

            1           2           3           4           5           6
    1   3.6733532   0.8266069   0.9572945   0.9575606   0.9620420  -0.0181121
    2   0.8266069   0.8095236  -0.0104056  -0.0107073  -0.0140850  -0.0193478
    3   0.9572945  -0.0104056   0.8968696  -0.0349432  -0.0212042   0.0037175
    4   0.9575606  -0.0107073  -0.0349432   0.8969952  -0.0210470   0.0034890
    5   0.9620420  -0.0140850  -0.0212042  -0.0210470   0.9025750  -0.0025718
    6  -0.0181121  -0.0193478   0.0037175   0.0034890  -0.0025718   3.8551668
    7  -0.0051528  -0.0001894   0.0009518   0.0009764  -0.0005253   0.9768919
    8  -0.0046031   0.0188468   0.0009652  -0.0007785  -0.0000083   0.9690281
    9   0.0032531   0.0010343   0.0012983   0.0013732   0.0000183   0.9725709
   10  -0.0055359   0.0177707  -0.0008048   0.0010721  -0.0000438   0.9695011
            7           8           9          10
    1  -0.0051528  -0.0046031   0.0032531  -0.0055359
    2  -0.0001894   0.0188468   0.0010343   0.0177707
    3   0.0009518   0.0009652   0.0012983  -0.0008048
    4   0.0009764  -0.0007785   0.0013732   0.0010721
    5  -0.0005253  -0.0000083   0.0000183  -0.0000438
    6   0.9768919   0.9690281   0.9725709   0.9695011
    7   0.9400221  -0.0116596  -0.0098874  -0.0113835
    8  -0.0116596   0.9305950  -0.0219163  -0.0192793
    9  -0.0098874  -0.0219163   0.9256764  -0.0220681
   10  -0.0113835  -0.0192793  -0.0220681   0.9292285


 JobOver = TRUE
Archival summary:
1\1\qciep03\SP\HF\BasisUnspecified\l127\jcartus\ThuFeb112:09:562018ThuFeb112:09:562018\0\\#,HF,BasisUnspecified,\\0,1\Cl\C,1,1.77866\H,2,1.08343,1,108.589\H,2,1.08344,1,108.59,3,-119.822,0\H,2,1.08349,1,108.554,3,120.091,0\H,3,2.7911,2,109.836,1,-58.7812,0\C,6,1.0855,3,101.753,2,-62.4188,0\H,7,1.08548,6,109.49,3,-168.05,0\H,7,1.08549,6,109.132,3,72.1091,0\H,7,1.08592,6,109.7,3,-48.1145,0\\HF=-539.340841\\@

 Total job time:  26.13s(wall), 25.75s(cpu) 
 Thu Feb  1 12:09:56 2018

        *************************************************************
        *                                                           *
        *  Thank you very much for using Q-Chem.  Have a nice day.  *
        *                                                           *
        *************************************************************


*** MISSION COMPLETED -- STARFLEET OUT ***

0 sent ACK to 0 
now end server 0 ... 
