Process 0 of 1 is on qciep03 - thread support 0
initial socket setup ...start
initial socket setup ...done 
now start server 0 ... 
qciep03.tugraz.at 127.0.1
Q-Chem Developer Version! Running on 127.0.1.*
                  Welcome to Q-Chem
     A Quantum Leap Into The Future Of Chemistry


 Q-Chem 5.0, Q-Chem, Inc., Pleasanton, CA (2017)

 Yihan Shao,  Zhengting Gan,  E. Epifanovsky,  A. T. B. Gilbert,  M. Wormit,  
 J. Kussmann,  A. W. Lange,  A. Behn,  Jia Deng,  Xintian Feng,  D. Ghosh,  
 M. Goldey,  P. R. Horn,  L. D. Jacobson,  I. Kaliman,  T. Kus,  A. Landau,  
 Jie Liu,  E. I. Proynov,  R. M. Richard,  R. P. Steele,  E. J. Sundstrom,  
 H. L. Woodcock III,  P. M. Zimmerman,  D. Zuev,  B. Albrecht,  E. Alguire,  
 S. A. Baeppler,  D. Barton,  Z. Benda,  Y. A. Bernard,  E. J. Berquist,  
 K. B. Bravaya,  H. Burton,  D. Casanova,  Chun-Min Chang,  Yunqing Chen,  
 A. Chien,  K. D. Closser,  M. P. Coons,  S. Dasgupta,  A. L. Dempwolff,  
 M. Diedenhofen,  Hainam Do,  R. G. Edgar,  Po-Tung Fang,  S. Fatehi,  
 Qingguo Feng,  J. Fosso-Tande,  Qinghui Ge,  A. Ghysels,  G. Gidofalvi,  
 J. Gomes,  J. Gonthier,  A. Gunina,  M. W. D. Hanson-Heine,  
 P. H. P. Harbach,  A. W. Hauser,  J. E. Herr,  E. G. Hohenstein,  
 Z. C. Holden,  Kerwin Hui,  T.-C. Jagau,  Hyunjun Ji,  B. Kaduk,  
 K. Khistyaev,  Jaehoon Kim,  P. Klunzinger,  K. Koh,  D. Kosenkov,  
 L. Koulias,  T. Kowalczyk,  C. M. Krauter,  A. Kunitsa,  Ka Un Lao,  
 A. Laurent,  K. V. Lawler,  Joonho Lee,  D. Lefrancois,  S. Lehtola,  
 D. S. Levine,  Yi-Pei Li,  You-Sheng Lin,  Fenglai Liu,  E. Livshits,  
 A. Luenser,  P. Manohar,  E. Mansoor,  S. F. Manzer,  Shan-Ping Mao,  
 Yuezhi Mao,  N. Mardirossian,  A. V. Marenich,  T. Markovich,  
 L. A. Martinez-Martinez,  S. A. Maurer,  N. J. Mayhall,  S. C. McKenzie,  
 J.-M. Mewes,  A. F. Morrison,  J. W. Mullinax,  K. Nanda,  
 T. S. Nguyen-Beck,  R. Olivares-Amaya,  J. A. Parkhill,  T. M. Perrine,  
 F. Plasser,  S. Prager,  A. Prociuk,  E. Ramos,  D. R. Rehn,  F. Rob,  
 M. Schneider,  N. Sergueev,  S. M. Sharada,  S. Sharma,  D. W. Small,  
 T. Stauch,  T. Stein,  Yu-Chuan Su,  A. J. W. Thom,  A. Tkatchenko,  
 T. Tsuchimochi,  L. Vogt,  O. Vydrov,  M. A. Watson,  J. Wenzel,  
 M. de Wergifosse,  T. A. Wesolowski,  A. White,  J. Witte,  A. Yamada,  
 Jun Yang,  K. Yao,  S. Yeganeh,  S. R. Yost,  Zhi-Qiang You,  A. Zech,  
 Igor Ying Zhang,  Xing Zhang,  Yan Zhao,  Ying Zhu,  B. R. Brooks,  
 G. K. L. Chan,  C. J. Cramer,  M. S. Gordon,  W. J. Hehre,  A. Klamt,  
 M. W. Schmidt,  C. D. Sherrill,  D. G. Truhlar,  A. Aspuru-Guzik,  R. Baer,  
 A. T. Bell,  N. A. Besley,  Jeng-Da Chai,  R. A. DiStasio Jr.,  A. Dreuw,  
 B. D. Dunietz,  T. R. Furlani,  Chao-Ping Hsu,  Yousung Jung,  Jing Kong,  
 D. S. Lambrecht,  WanZhen Liang,  C. Ochsenfeld,  V. A. Rassolov,  
 L. V. Slipchenko,  J. E. Subotnik,  T. Van Voorhis,  J. M. Herbert,  
 A. I. Krylov,  P. M. W. Gill,  M. Head-Gordon

 Contributors to earlier versions of Q-Chem not listed above: 
 R. D. Adamson,  B. Austin,  J. Baker,  G. J. O. Beran,  K. Brandhorst,  
 S. T. Brown,  E. F. C. Byrd,  A. K. Chakraborty,  C.-L. Cheng,  
 Siu Hung Chien,  D. M. Chipman,  D. L. Crittenden,  H. Dachsel,  
 R. J. Doerksen,  A. D. Dutoi,  L. Fusti-Molnar,  W. A. Goddard III,  
 A. Golubeva-Zadorozhnaya,  S. R. Gwaltney,  G. Hawkins,  A. Heyden,  
 S. Hirata,  G. Kedziora,  F. J. Keil,  C. Kelley,  Jihan Kim,  R. A. King,  
 R. Z. Khaliullin,  P. P. Korambath,  W. Kurlancheek,  A. M. Lee,  M. S. Lee,  
 S. V. Levchenko,  Ching Yeh Lin,  D. Liotard,  R. C. Lochan,  I. Lotan,  
 P. E. Maslen,  N. Nair,  D. P. O'Neill,  D. Neuhauser,  E. Neuscamman,  
 C. M. Oana,  R. Olson,  B. Peters,  R. Peverati,  P. A. Pieniazek,  
 Y. M. Rhee,  J. Ritchie,  M. A. Rohrdanz,  E. Rosta,  N. J. Russ,  
 H. F. Schaefer III,  N. E. Schultz,  N. Shenvi,  A. C. Simmonett,  A. Sodt,  
 D. Stuck,  K. S. Thanthiriwatte,  V. Vanovschi,  Tao Wang,  A. Warshel,  
 C. F. Williams,  Q. Wu,  X. Xu,  W. Zhang

 Please cite Q-Chem as follows:
 Y. Shao et al., Mol. Phys. 113, 184-215 (2015)
 DOI: 10.1080/00268976.2014.952696

 Q-Chem 5.0.2 for Intel X86 EM64T Linux

 Parts of Q-Chem use Armadillo 5.200.1 (Boston Tea Smuggler).
 http://arma.sourceforge.net/

 Q-Chem begins on Thu Feb  1 12:06:02 2018  


Host: 0

     Scratch files written to /home/jcartus/scratch/03_methane-Br2_mono1.dir//
 Using version located at /usr/local/qchem/bin/qchem

 Parallel job on  1  processors

Total Memory Limit in MB = 2000
Mega-Array Size in MB = 192

Checking the input file for inconsistencies... 	...done.
Finally everything over in PARseQInput

--------------------------------------------------------------
User input:
--------------------------------------------------------------
$rem
SCF_PRINT                     1
BASIS                         6-311++g**
SCF_SAVE_MATRICES             1
SCF_CONVERGENCE               5
SCF_FINAL_PRINT               1
METHOD                        hf
JOBTYPE                       sp
$end

$molecule
0 1
C    0.050957671    0.055164191    -0.032925885
H    -1.02444564    0.072269161    0.117546172
H    0.508348983    -0.636912672    0.667869998
H    0.450713107    1.050360674    0.135265329
H    0.274236028    -0.252091989    -1.05034328
$end


--------------------------------------------------------------
 ----------------------------------------------------------------
             Standard Nuclear Orientation (Angstroms)
    I     Atom           X                Y                Z
 ----------------------------------------------------------------
    1      C      -0.0000121350    -0.0000495886     0.0014046573
    2      H       0.9264849424     0.4290905326     0.3713622540
    3      H      -0.0877278909    -1.0288213014     0.3378965226
    4      H       0.0049876684     0.0217104464    -1.0839571421
    5      H      -0.8436719101     0.5783178539     0.3662704215
 ----------------------------------------------------------------
 Molecular Point Group                 C1    NOp =  1
 Largest Abelian Subgroup              C1    NOp =  1
 Nuclear Repulsion Energy =    13.4862635634 hartrees
 There are        5 alpha and        5 beta electrons
 Requested basis set is 6-311++G(d,p)
 There are 26 shells and 50 basis functions

 Total QAlloc Memory Limit   2000 MB
 Mega-Array Size       188 MB
 MEM_STATIC part       192 MB

finished with qalloc call

                       Distance Matrix (Angstroms)
             C (  1)   H (  2)   H (  3)   H (  4)
   H (  2)  1.086014
   H (  3)  1.085952  1.776304
   H (  4)  1.085591  1.770048  1.770277
   H (  5)  1.086001  1.776443  1.776275  1.770083

 Job number = 2, Threshold = 1.00E-08
Integral type ranges set in mkLRange.C for JobNum: 2  <1-21|1-21>
Symmetry turned off temporarily
 Using the largest function pair in Schwarz integrals
Total number of integrals generated =           13035
Symmetry turned back on
 A cutoff of  1.0D-08 yielded    351 shell pairs
 There are      1321 function pairs (      1377 Cartesian)
 Job number = 11, Threshold = 1.00E-08
Integral type ranges set in mkLRange.C for JobNum: 11  <1-21|22-22>
Total number of integrals generated =            6885
 Smallest overlap matrix eigenvalue = 1.33E-03
 Multipole matrices computed through 2nd order

 Scale SEOQF with 1.000000e-01/1.000000e-01/1.000000e-01

 Standard Electronic Orientation quadrupole field applied
 ENuRep (before)= 13.486264
 ENucField = 0.000000
 ENuRep (after) = 13.486264
 Guess from superposition of atomic densities
 Warning:  Energy on first SCF cycle will be non-variational
 SAD guess density has 10.000000 electrons

 ==================================================
    GEN_SCFMAN: A general SCF calculation manager  
                                                   
    Authors:                                       
        -- Eric Jon Sundstrom 2008-2014            
        -- Paul Horn 2010-2015                     
        -- Yuezhi Mao 2012-                        
        -- Dmitri Zuev 2014                        
        -- Alec White 2015-                        
        -- David Stuck 2015                        
        -- Shaama M.S. 2015                        
        -- Shane Yost 2015-                         
        -- Joonho Lee 2016-                        
        -- David Small 2016-                       
        -- Daniel Levine 2016-                     
        -- Susi Lehtola 2017-                      
        -- Hugh Burton 2017-                       
 ==================================================
 Hartree-Fock
Finding J and K together
 Job number = 22, Threshold = 1.00E-08
Integral type ranges set in mkLRange.C for JobNum: 22  <1-21|1-21>
 MakeJK  time:  CPU       0.22 s  wall       0.23 s
 HF Exchange:               -6.48606252881997
 One-Electron:             -78.38936339513003
 Total Coulomb:             31.13689638058720
 Nuclear repulsion:         13.48626356341178
 A restricted SCF calculation will be
 performed using DIIS
 SCF converges when DIIS error is below 1.0e-05
 ---------------------------------------
  Cycle       Energy         DIIS error
 ---------------------------------------
Finding J and K together
 Job number = 22, Threshold = 1.00E-08
Integral type ranges set in mkLRange.C for JobNum: 22  <1-21|1-21>
 MakeJK  time:  CPU       0.33 s  wall       0.35 s
 HF Exchange:               -6.57912148251277
 One-Electron:             -80.02818038583629
 Total Coulomb:             32.92381306624663
 Nuclear repulsion:         13.48626356341178
    1     -40.2522659800      7.40e-02  
Finding J and K together
 Job number = 22, Threshold = 1.00E-08
Integral type ranges set in mkLRange.C for JobNum: 22  <1-21|1-21>
 MakeJK  time:  CPU       0.33 s  wall       0.35 s
 HF Exchange:               -6.56905804886599
 One-Electron:             -79.69783282862490
 Total Coulomb:             32.57261718401874
 Nuclear repulsion:         13.48626356341178
    2     -40.1972252387      5.57e-03  
Finding J and K together
 Job number = 22, Threshold = 1.00E-08
Integral type ranges set in mkLRange.C for JobNum: 22  <1-21|1-21>
 MakeJK  time:  CPU       0.34 s  wall       0.40 s
 HF Exchange:               -6.59496753035226
 One-Electron:             -79.85236303715314
 Total Coulomb:             32.75206515259999
 Nuclear repulsion:         13.48626356341178
    3     -40.2080101301      1.60e-03  
Finding J and K together
 Job number = 22, Threshold = 1.00E-08
Integral type ranges set in mkLRange.C for JobNum: 22  <1-21|1-21>
 MakeJK  time:  CPU       0.33 s  wall       0.35 s
 HF Exchange:               -6.59392447522341
 One-Electron:             -79.81407226262610
 Total Coulomb:             32.71260318480652
 Nuclear repulsion:         13.48626356341178
    4     -40.2090018515      5.24e-04  
Finding J and K together
 Job number = 22, Threshold = 1.00E-08
Integral type ranges set in mkLRange.C for JobNum: 22  <1-21|1-21>
 MakeJK  time:  CPU       0.34 s  wall       0.36 s
 HF Exchange:               -6.59475223592986
 One-Electron:             -79.81555929332471
 Total Coulomb:             32.71491422951008
 Nuclear repulsion:         13.48626356341178
    5     -40.2091299896      6.93e-05  
    6     -40.2091337363      6.65e-06  Convergence criterion met
 ---------------------------------------
 SCF time:   CPU 1.92s  wall 3.00s 
 Total energy in the final basis set =      -40.2091337363
 HF Exchange:               -6.59475223592986
 One-Electron:             -79.81555929332471
 Total Coulomb:             32.71491422951008
 Nuclear repulsion:         13.48626356341178
Wall  1 = 3
Clock 1 = 1.93079495429993
 ==================================================
                  Done GEN_SCFMAN                  
 ==================================================

Symmetry turned off temporarily

 --------------------------------------------------------------

                    Orbital Energies (a.u.)
 --------------------------------------------------------------

 Alpha MOs
 -- Occupied --
-11.206  -0.944  -0.546  -0.546  -0.545
 -- Virtual --
  0.042   0.078   0.078   0.078   0.153   0.153   0.153   0.190
  0.309   0.309   0.309   0.382   0.550   0.551   0.551   0.866
  0.876   0.876   0.876   1.037   1.202   1.202   1.725   1.728
  1.728   1.807   1.807   1.809   2.204   2.208   2.208   2.628
  2.628   2.692   2.798   2.798   2.798   2.940   2.940   2.940
  3.270   4.210   4.213   4.214  25.213
 --------------------------------------------------------------

          Ground-State Mulliken Net Atomic Charges

     Atom                 Charge (a.u.)
  ----------------------------------------
      1 C                    -0.468651
      2 H                     0.117117
      3 H                     0.117125
      4 H                     0.117290
      5 H                     0.117119
  ----------------------------------------
  Sum of atomic charges =    -0.000000

 -----------------------------------------------------------------
                    Cartesian Multipole Moments
 -----------------------------------------------------------------
    Charge (ESU x 10^10)
                -0.0000
    Dipole Moment (Debye)
         X       0.0000      Y       0.0001      Z      -0.0049
       Tot       0.0049
    Quadrupole Moments (Debye-Ang)
        XX      -8.4131     XY      -0.0000     YY      -8.4135
        XZ      -0.0000     YZ      -0.0000     ZZ      -8.4423
    Octopole Moments (Debye-Ang^2)
       XXX       0.1353    XXY       0.5380    XYY      -0.1424
       YYY      -0.5687    XXZ       0.3983    XYZ      -0.0005
       YYZ       0.3747    XZZ       0.0072    YZZ       0.0308
       ZZZ      -0.7867
    Hexadecapole Moments (Debye-Ang^3)
      XXXX     -15.8247   XXXY      -0.0065   XXYY      -5.2871
      XYYY       0.0067   YYYY     -15.7957   XXXZ       0.0912
      XXYZ       0.3457   XYYZ      -0.0866   YYYZ      -0.3249
      XXZZ      -5.5143   XYZZ      -0.0002   YYZZ      -5.5420
      XZZZ      -0.0046   YZZZ      -0.0208   ZZZZ     -15.5694
 -----------------------------------------------------------------
 Mayer SCF Bond Order, atomic valence on the diagonal:

            1           2           3           4           5
    1   3.8986537   0.9748042   0.9747987   0.9742480   0.9748028
    2   0.9748042   0.9269403  -0.0158567  -0.0161538  -0.0158535
    3   0.9747987  -0.0158567   0.9269419  -0.0161428  -0.0158573
    4   0.9742480  -0.0161538  -0.0161428   0.9257995  -0.0161520
    5   0.9748028  -0.0158535  -0.0158573  -0.0161520   0.9269400


 JobOver = TRUE
Archival summary:
1\1\qciep03\SP\HF\BasisUnspecified\14\jcartus\ThuFeb112:06:052018ThuFeb112:06:052018\0\\#,HF,BasisUnspecified,\\0,1\C\H,1,1.08559\H,1,1.08595,2,109.217\H,1,1.086,2,109.196,3,-120.001,0\H,1,1.08601,2,109.192,3,120,0\\HF=-40.2091337\\@

 Total job time:  2.26s(wall), 2.04s(cpu) 
 Thu Feb  1 12:06:05 2018

        *************************************************************
        *                                                           *
        *  Thank you very much for using Q-Chem.  Have a nice day.  *
        *                                                           *
        *************************************************************


*** MISSION COMPLETED -- STARFLEET OUT ***

0 sent ACK to 0 
now end server 0 ... 
