Process 0 of 1 is on qciep03 - thread support 0
initial socket setup ...start
initial socket setup ...done 
now start server 0 ... 
qciep03.tugraz.at 127.0.1
Q-Chem Developer Version! Running on 127.0.1.*
                  Welcome to Q-Chem
     A Quantum Leap Into The Future Of Chemistry


 Q-Chem 5.0, Q-Chem, Inc., Pleasanton, CA (2017)

 Yihan Shao,  Zhengting Gan,  E. Epifanovsky,  A. T. B. Gilbert,  M. Wormit,  
 J. Kussmann,  A. W. Lange,  A. Behn,  Jia Deng,  Xintian Feng,  D. Ghosh,  
 M. Goldey,  P. R. Horn,  L. D. Jacobson,  I. Kaliman,  T. Kus,  A. Landau,  
 Jie Liu,  E. I. Proynov,  R. M. Richard,  R. P. Steele,  E. J. Sundstrom,  
 H. L. Woodcock III,  P. M. Zimmerman,  D. Zuev,  B. Albrecht,  E. Alguire,  
 S. A. Baeppler,  D. Barton,  Z. Benda,  Y. A. Bernard,  E. J. Berquist,  
 K. B. Bravaya,  H. Burton,  D. Casanova,  Chun-Min Chang,  Yunqing Chen,  
 A. Chien,  K. D. Closser,  M. P. Coons,  S. Dasgupta,  A. L. Dempwolff,  
 M. Diedenhofen,  Hainam Do,  R. G. Edgar,  Po-Tung Fang,  S. Fatehi,  
 Qingguo Feng,  J. Fosso-Tande,  Qinghui Ge,  A. Ghysels,  G. Gidofalvi,  
 J. Gomes,  J. Gonthier,  A. Gunina,  M. W. D. Hanson-Heine,  
 P. H. P. Harbach,  A. W. Hauser,  J. E. Herr,  E. G. Hohenstein,  
 Z. C. Holden,  Kerwin Hui,  T.-C. Jagau,  Hyunjun Ji,  B. Kaduk,  
 K. Khistyaev,  Jaehoon Kim,  P. Klunzinger,  K. Koh,  D. Kosenkov,  
 L. Koulias,  T. Kowalczyk,  C. M. Krauter,  A. Kunitsa,  Ka Un Lao,  
 A. Laurent,  K. V. Lawler,  Joonho Lee,  D. Lefrancois,  S. Lehtola,  
 D. S. Levine,  Yi-Pei Li,  You-Sheng Lin,  Fenglai Liu,  E. Livshits,  
 A. Luenser,  P. Manohar,  E. Mansoor,  S. F. Manzer,  Shan-Ping Mao,  
 Yuezhi Mao,  N. Mardirossian,  A. V. Marenich,  T. Markovich,  
 L. A. Martinez-Martinez,  S. A. Maurer,  N. J. Mayhall,  S. C. McKenzie,  
 J.-M. Mewes,  A. F. Morrison,  J. W. Mullinax,  K. Nanda,  
 T. S. Nguyen-Beck,  R. Olivares-Amaya,  J. A. Parkhill,  T. M. Perrine,  
 F. Plasser,  S. Prager,  A. Prociuk,  E. Ramos,  D. R. Rehn,  F. Rob,  
 M. Schneider,  N. Sergueev,  S. M. Sharada,  S. Sharma,  D. W. Small,  
 T. Stauch,  T. Stein,  Yu-Chuan Su,  A. J. W. Thom,  A. Tkatchenko,  
 T. Tsuchimochi,  L. Vogt,  O. Vydrov,  M. A. Watson,  J. Wenzel,  
 M. de Wergifosse,  T. A. Wesolowski,  A. White,  J. Witte,  A. Yamada,  
 Jun Yang,  K. Yao,  S. Yeganeh,  S. R. Yost,  Zhi-Qiang You,  A. Zech,  
 Igor Ying Zhang,  Xing Zhang,  Yan Zhao,  Ying Zhu,  B. R. Brooks,  
 G. K. L. Chan,  C. J. Cramer,  M. S. Gordon,  W. J. Hehre,  A. Klamt,  
 M. W. Schmidt,  C. D. Sherrill,  D. G. Truhlar,  A. Aspuru-Guzik,  R. Baer,  
 A. T. Bell,  N. A. Besley,  Jeng-Da Chai,  R. A. DiStasio Jr.,  A. Dreuw,  
 B. D. Dunietz,  T. R. Furlani,  Chao-Ping Hsu,  Yousung Jung,  Jing Kong,  
 D. S. Lambrecht,  WanZhen Liang,  C. Ochsenfeld,  V. A. Rassolov,  
 L. V. Slipchenko,  J. E. Subotnik,  T. Van Voorhis,  J. M. Herbert,  
 A. I. Krylov,  P. M. W. Gill,  M. Head-Gordon

 Contributors to earlier versions of Q-Chem not listed above: 
 R. D. Adamson,  B. Austin,  J. Baker,  G. J. O. Beran,  K. Brandhorst,  
 S. T. Brown,  E. F. C. Byrd,  A. K. Chakraborty,  C.-L. Cheng,  
 Siu Hung Chien,  D. M. Chipman,  D. L. Crittenden,  H. Dachsel,  
 R. J. Doerksen,  A. D. Dutoi,  L. Fusti-Molnar,  W. A. Goddard III,  
 A. Golubeva-Zadorozhnaya,  S. R. Gwaltney,  G. Hawkins,  A. Heyden,  
 S. Hirata,  G. Kedziora,  F. J. Keil,  C. Kelley,  Jihan Kim,  R. A. King,  
 R. Z. Khaliullin,  P. P. Korambath,  W. Kurlancheek,  A. M. Lee,  M. S. Lee,  
 S. V. Levchenko,  Ching Yeh Lin,  D. Liotard,  R. C. Lochan,  I. Lotan,  
 P. E. Maslen,  N. Nair,  D. P. O'Neill,  D. Neuhauser,  E. Neuscamman,  
 C. M. Oana,  R. Olson,  B. Peters,  R. Peverati,  P. A. Pieniazek,  
 Y. M. Rhee,  J. Ritchie,  M. A. Rohrdanz,  E. Rosta,  N. J. Russ,  
 H. F. Schaefer III,  N. E. Schultz,  N. Shenvi,  A. C. Simmonett,  A. Sodt,  
 D. Stuck,  K. S. Thanthiriwatte,  V. Vanovschi,  Tao Wang,  A. Warshel,  
 C. F. Williams,  Q. Wu,  X. Xu,  W. Zhang

 Please cite Q-Chem as follows:
 Y. Shao et al., Mol. Phys. 113, 184-215 (2015)
 DOI: 10.1080/00268976.2014.952696

 Q-Chem 5.0.2 for Intel X86 EM64T Linux

 Parts of Q-Chem use Armadillo 5.200.1 (Boston Tea Smuggler).
 http://arma.sourceforge.net/

 Q-Chem begins on Thu Feb  1 11:53:15 2018  


Host: 0

     Scratch files written to /home/jcartus/scratch/03_methane-Br2.dir//
 Using version located at /usr/local/qchem/bin/qchem

 Parallel job on  1  processors

Total Memory Limit in MB = 2000
Mega-Array Size in MB = 192

Checking the input file for inconsistencies... 	...done.
Finally everything over in PARseQInput

--------------------------------------------------------------
User input:
--------------------------------------------------------------
$rem
SCF_PRINT                     1
BASIS                         6-311++g**
SCF_SAVE_MATRICES             1
SCF_CONVERGENCE               5
SCF_FINAL_PRINT               1
METHOD                        hf
JOBTYPE                       sp
$end

$molecule
0 1
C    0.050957671    0.055164191    -0.032925885
H    -1.02444564    0.072269161    0.117546172
H    0.508348983    -0.636912672    0.667869998
H    0.450713107    1.050360674    0.135265329
H    0.274236028    -0.252091989    -1.05034328
Br    -1.227140046    -3.025541086    -0.588241171
Br    -2.087810866    -5.109690789    -0.960898622
$end


--------------------------------------------------------------
 ----------------------------------------------------------------
             Standard Nuclear Orientation (Angstroms)
    I     Atom           X                Y                Z
 ----------------------------------------------------------------
    1      C       3.9582773968    -0.0008419202     0.0018527219
    2      H       3.5927623164     0.9776313637    -0.2954946505
    3      H       3.6146705733    -0.2310943377     1.0059494509
    4      H       5.0437685882     0.0043617136    -0.0119504869
    5      H       3.5959579042    -0.7541129443    -0.6914762693
    6      Br      0.5770583908     0.0005851686    -0.0012843721
    7      Br     -1.7083962126    -0.0003490050     0.0007659613
 ----------------------------------------------------------------
 Molecular Point Group                 C1    NOp =  1
 Largest Abelian Subgroup              C1    NOp =  1
 Nuclear Repulsion Energy =   384.1660393043 hartrees
 There are       40 alpha and       40 beta electrons
 Requested basis set is 6-311++G(d,p)
 There are 64 shells and 146 basis functions

 Total QAlloc Memory Limit   2000 MB
 Mega-Array Size       188 MB
 MEM_STATIC part       192 MB

finished with qalloc call

                       Distance Matrix (Angstroms)
             C (  1)   H (  2)   H (  3)   H (  4)   H (  5)   Br(  6)
   H (  2)  1.086014
   H (  3)  1.085952  1.776304
   H (  4)  1.085591  1.770048  1.770277
   H (  5)  1.086001  1.776443  1.776275  1.770083
   Br(  6)  3.381221  3.183653  3.208626  4.466725  3.187427
   Br(  7)  5.666674  5.398750  5.422055  6.752178  5.402178  2.285456


 Job number = 2, Threshold = 1.00E-08
Integral type ranges set in mkLRange.C for JobNum: 2  <1-21|1-21>
Symmetry turned off temporarily
 Using the largest function pair in Schwarz integrals
Total number of integrals generated =          119033
Symmetry turned back on
 A cutoff of  1.0D-08 yielded   1549 shell pairs
 There are      8253 function pairs (      9065 Cartesian)
 Job number = 11, Threshold = 1.00E-08
Integral type ranges set in mkLRange.C for JobNum: 11  <1-21|22-22>
Total number of integrals generated =           63168
 Smallest overlap matrix eigenvalue = 4.13E-04
 Multipole matrices computed through 2nd order

 Scale SEOQF with 1.000000e-01/1.000000e-01/1.000000e-01

 Standard Electronic Orientation quadrupole field applied
 Nucleus-field energy     =     0.0000000097 hartrees
 ENuRep (before)= 384.1660393043
 ENucField = 0.0000000097
 ENuRep (after) = 384.1660393140
 Guess from superposition of atomic densities
 Warning:  Energy on first SCF cycle will be non-variational
 SAD guess density has 80.000000 electrons

 ==================================================
    GEN_SCFMAN: A general SCF calculation manager  
                                                   
    Authors:                                       
        -- Eric Jon Sundstrom 2008-2014            
        -- Paul Horn 2010-2015                     
        -- Yuezhi Mao 2012-                        
        -- Dmitri Zuev 2014                        
        -- Alec White 2015-                        
        -- David Stuck 2015                        
        -- Shaama M.S. 2015                        
        -- Shane Yost 2015-                         
        -- Joonho Lee 2016-                        
        -- David Small 2016-                       
        -- Daniel Levine 2016-                     
        -- Susi Lehtola 2017-                      
        -- Hugh Burton 2017-                       
 ==================================================
 Hartree-Fock
Finding J and K together
 Job number = 22, Threshold = 1.00E-08
Integral type ranges set in mkLRange.C for JobNum: 22  <1-21|1-21>
 MakeJK  time:  CPU       5.76 s  wall       5.85 s
 HF Exchange:              -185.78924363154644
 One-Electron:             -7984.29333279960520
 Total Coulomb:            2600.87918724758947
 Nuclear repulsion:        384.16603931399288
 A restricted SCF calculation will be
 performed using DIIS
 SCF converges when DIIS error is below 1.0e-05
 ---------------------------------------
  Cycle       Energy         DIIS error
 ---------------------------------------
Finding J and K together
 Job number = 22, Threshold = 1.00E-08
Integral type ranges set in mkLRange.C for JobNum: 22  <1-21|1-21>
 MakeJK  time:  CPU      10.64 s  wall      11.09 s
 HF Exchange:              -185.74261499283685
 One-Electron:             -7980.28042915084734
 Total Coulomb:            2596.95011286175168
 Nuclear repulsion:        384.16603931399288
    1   -5185.0373498696      3.74e-02  
Finding J and K together
 Job number = 22, Threshold = 1.00E-08
Integral type ranges set in mkLRange.C for JobNum: 22  <1-21|1-21>
 MakeJK  time:  CPU      11.30 s  wall      11.44 s
 HF Exchange:              -185.92485758943909
 One-Electron:             -7985.34256582076705
 Total Coulomb:            2602.16983726230501
 Nuclear repulsion:        384.16603931399288
    2   -5184.9068919679      3.03e-03  
Finding J and K together
 Job number = 22, Threshold = 1.00E-08
Integral type ranges set in mkLRange.C for JobNum: 22  <1-21|1-21>
 MakeJK  time:  CPU      11.41 s  wall      11.43 s
 HF Exchange:              -185.86313764098753
 One-Electron:             -7983.51335284093693
 Total Coulomb:            2600.27576960267379
 Nuclear repulsion:        384.16603931399288
    3   -5184.9315468339      1.29e-03  
Finding J and K together
 Job number = 22, Threshold = 1.00E-08
Integral type ranges set in mkLRange.C for JobNum: 22  <1-21|1-21>
 MakeJK  time:  CPU      11.34 s  wall      12.50 s
 HF Exchange:              -185.88825521606907
 One-Electron:             -7983.86023091754123
 Total Coulomb:            2600.64747051081577
 Nuclear repulsion:        384.16603931399288
    4   -5184.9346815653      3.58e-04  
Finding J and K together
 Job number = 22, Threshold = 1.00E-08
Integral type ranges set in mkLRange.C for JobNum: 22  <1-21|1-21>
 MakeJK  time:  CPU      10.46 s  wall      10.83 s
 HF Exchange:              -185.88626084377887
 One-Electron:             -7983.84053779563055
 Total Coulomb:            2600.62575893084522
 Nuclear repulsion:        384.16603931399288
    5   -5184.9349763088      8.90e-05  
Finding J and K together
 Job number = 22, Threshold = 1.00E-08
Integral type ranges set in mkLRange.C for JobNum: 22  <1-21|1-21>
 MakeJK  time:  CPU      10.86 s  wall      12.72 s
 HF Exchange:              -185.88734048758170
 One-Electron:             -7983.84843569632903
 Total Coulomb:            2600.63473454592395
 Nuclear repulsion:        384.16603931399288
    6   -5184.9350003946      1.80e-05  
    7   -5184.9350023240      3.13e-06  Convergence criterion met
 ---------------------------------------
 SCF time:   CPU 72.41s  wall 76.00s 
 Total energy in the final basis set =    -5184.9350023240
 HF Exchange:              -185.88734048758170
 One-Electron:             -7983.84843569632903
 Total Coulomb:            2600.63473454592395
 Nuclear repulsion:        384.16603931399288
Wall  1 = 76
Clock 1 = 72.51384735107422
 ==================================================
                  Done GEN_SCFMAN                  
 ==================================================

Symmetry turned off temporarily

 --------------------------------------------------------------

                    Orbital Energies (a.u.)
 --------------------------------------------------------------

 Alpha MOs
 -- Occupied --
*******-490.071 -65.205 -65.204 -58.565 -58.564 -58.563 -58.563
-58.562 -58.562 -11.214  -9.884  -9.883  -7.500  -7.498  -7.487
 -7.487  -7.486  -7.486  -3.241  -3.238  -3.235  -3.235  -3.233
 -3.233  -3.220  -3.220  -3.219  -3.219  -1.106  -0.957  -0.946
 -0.561  -0.556  -0.556  -0.529  -0.504  -0.504  -0.406  -0.406
 -- Virtual --
  0.001   0.043   0.072   0.079   0.079   0.092   0.114   0.114
  0.123   0.150   0.150   0.152   0.153   0.188   0.191   0.253
  0.257   0.301   0.301   0.365   0.393   0.491   0.534   0.534
  0.541   0.549   0.550   0.584   0.584   0.622   0.622   0.693
  0.723   0.723   0.776   0.784   0.784   0.804   0.840   0.874
  0.874   0.882   0.951   0.963   0.964   1.060   1.197   1.197
  1.331   1.716   1.720   1.720   1.801   1.801   1.879   2.200
  2.200   2.223   2.240   2.240   2.327   2.328   2.334   2.492
  2.622   2.622   2.698   2.790   2.790   2.891   2.935   2.935
  2.978   3.301   4.205   4.205   4.207   4.418   4.418   4.490
  4.490   4.538   4.538   4.574   4.656   4.656   4.960   7.067
  7.149   8.159   8.159   8.212   8.212   8.224   8.374  25.209
 49.354  49.435 293.833 293.833 293.890 293.890 293.956 294.040
*******1028.371
 --------------------------------------------------------------

          Ground-State Mulliken Net Atomic Charges

     Atom                 Charge (a.u.)
  ----------------------------------------
      1 C                    -0.525519
      2 H                     0.125728
      3 H                     0.127410
      4 H                     0.136236
      5 H                     0.125988
      6 Br                    0.033952
      7 Br                   -0.023795
  ----------------------------------------
  Sum of atomic charges =     0.000000

 -----------------------------------------------------------------
                    Cartesian Multipole Moments
 -----------------------------------------------------------------
    Charge (ESU x 10^10)
                 0.0000
    Dipole Moment (Debye)
         X       0.2596      Y      -0.0001      Z       0.0001
       Tot       0.2596
    Quadrupole Moments (Debye-Ang)
        XX     -40.2468     XY       0.0018     YY     -45.9691
        XZ      -0.0042     YZ      -0.0001     ZZ     -45.9685
    Octopole Moments (Debye-Ang^2)
       XXX     -38.2279    XXY       0.0097    XYY     -12.1565
       YYY       0.3623    XXZ      -0.0260    XYZ      -0.0028
       YYZ      -0.4516    XZZ     -12.1395    YZZ      -0.3605
       ZZZ       0.4512
    Hexadecapole Moments (Debye-Ang^3)
      XXXX   -1113.8323   XXXY       0.1556   XXYY    -215.6098
      XYYY       1.2113   YYYY     -61.2200   XXXZ      -0.3907
      XXYZ      -0.0179   XYYZ      -1.5099   YYYZ       0.0091
      XXZZ    -215.5041   XYZZ      -1.2081   YYZZ     -20.4106
      XZZZ       1.5195   YZZZ      -0.0132   ZZZZ     -61.1920
 -----------------------------------------------------------------
 Mayer SCF Bond Order, atomic valence on the diagonal:

            1           2           3           4           5           6
    1   3.8920346   0.9705390   0.9714549   0.9732249   0.9706865  -0.0110002
    2   0.9705390   0.9238495  -0.0170965  -0.0126165  -0.0168429   0.0031169
    3   0.9714549  -0.0170965   0.9241964  -0.0119890  -0.0171439   0.0023109
    4   0.9732249  -0.0126165  -0.0119890   0.9372228  -0.0125187  -0.0010698
    5   0.9706865  -0.0168429  -0.0171439  -0.0125187   0.9239053   0.0029907
    6  -0.0110002   0.0031169   0.0023109  -0.0010698   0.0029907   0.9157226
    7   0.0171294  -0.0032505  -0.0033400   0.0021918  -0.0032665   0.9193741
            7
    1   0.0171294
    2  -0.0032505
    3  -0.0033400
    4   0.0021918
    5  -0.0032665
    6   0.9193741
    7   0.9288383


 JobOver = TRUE
Archival summary:
1\1\qciep03\SP\HF\BasisUnspecified\r214\jcartus\ThuFeb111:54:322018ThuFeb111:54:322018\0\\#,HF,BasisUnspecified,\\0,1\Br\Br,1,2.28546\H,1,3.18365,2,161.344\C,3,1.08601,1,90.9743,2,179.73,0\H,4,1.08559,3,109.192,1,179.3,0\H,4,1.08595,3,109.737,1,-61.0198,0\H,4,1.086,3,109.746,1,59.6402,0\\HF=-5184.935\\@

 Total job time:  77.19s(wall), 72.96s(cpu) 
 Thu Feb  1 11:54:32 2018

        *************************************************************
        *                                                           *
        *  Thank you very much for using Q-Chem.  Have a nice day.  *
        *                                                           *
        *************************************************************


*** MISSION COMPLETED -- STARFLEET OUT ***

0 sent ACK to 0 
now end server 0 ... 
