Process 0 of 1 is on qciep03 - thread support 0
initial socket setup ...start
initial socket setup ...done 
now start server 0 ... 
qciep03.tugraz.at 127.0.1
Q-Chem Developer Version! Running on 127.0.1.*
                  Welcome to Q-Chem
     A Quantum Leap Into The Future Of Chemistry


 Q-Chem 5.0, Q-Chem, Inc., Pleasanton, CA (2017)

 Yihan Shao,  Zhengting Gan,  E. Epifanovsky,  A. T. B. Gilbert,  M. Wormit,  
 J. Kussmann,  A. W. Lange,  A. Behn,  Jia Deng,  Xintian Feng,  D. Ghosh,  
 M. Goldey,  P. R. Horn,  L. D. Jacobson,  I. Kaliman,  T. Kus,  A. Landau,  
 Jie Liu,  E. I. Proynov,  R. M. Richard,  R. P. Steele,  E. J. Sundstrom,  
 H. L. Woodcock III,  P. M. Zimmerman,  D. Zuev,  B. Albrecht,  E. Alguire,  
 S. A. Baeppler,  D. Barton,  Z. Benda,  Y. A. Bernard,  E. J. Berquist,  
 K. B. Bravaya,  H. Burton,  D. Casanova,  Chun-Min Chang,  Yunqing Chen,  
 A. Chien,  K. D. Closser,  M. P. Coons,  S. Dasgupta,  A. L. Dempwolff,  
 M. Diedenhofen,  Hainam Do,  R. G. Edgar,  Po-Tung Fang,  S. Fatehi,  
 Qingguo Feng,  J. Fosso-Tande,  Qinghui Ge,  A. Ghysels,  G. Gidofalvi,  
 J. Gomes,  J. Gonthier,  A. Gunina,  M. W. D. Hanson-Heine,  
 P. H. P. Harbach,  A. W. Hauser,  J. E. Herr,  E. G. Hohenstein,  
 Z. C. Holden,  Kerwin Hui,  T.-C. Jagau,  Hyunjun Ji,  B. Kaduk,  
 K. Khistyaev,  Jaehoon Kim,  P. Klunzinger,  K. Koh,  D. Kosenkov,  
 L. Koulias,  T. Kowalczyk,  C. M. Krauter,  A. Kunitsa,  Ka Un Lao,  
 A. Laurent,  K. V. Lawler,  Joonho Lee,  D. Lefrancois,  S. Lehtola,  
 D. S. Levine,  Yi-Pei Li,  You-Sheng Lin,  Fenglai Liu,  E. Livshits,  
 A. Luenser,  P. Manohar,  E. Mansoor,  S. F. Manzer,  Shan-Ping Mao,  
 Yuezhi Mao,  N. Mardirossian,  A. V. Marenich,  T. Markovich,  
 L. A. Martinez-Martinez,  S. A. Maurer,  N. J. Mayhall,  S. C. McKenzie,  
 J.-M. Mewes,  A. F. Morrison,  J. W. Mullinax,  K. Nanda,  
 T. S. Nguyen-Beck,  R. Olivares-Amaya,  J. A. Parkhill,  T. M. Perrine,  
 F. Plasser,  S. Prager,  A. Prociuk,  E. Ramos,  D. R. Rehn,  F. Rob,  
 M. Schneider,  N. Sergueev,  S. M. Sharada,  S. Sharma,  D. W. Small,  
 T. Stauch,  T. Stein,  Yu-Chuan Su,  A. J. W. Thom,  A. Tkatchenko,  
 T. Tsuchimochi,  L. Vogt,  O. Vydrov,  M. A. Watson,  J. Wenzel,  
 M. de Wergifosse,  T. A. Wesolowski,  A. White,  J. Witte,  A. Yamada,  
 Jun Yang,  K. Yao,  S. Yeganeh,  S. R. Yost,  Zhi-Qiang You,  A. Zech,  
 Igor Ying Zhang,  Xing Zhang,  Yan Zhao,  Ying Zhu,  B. R. Brooks,  
 G. K. L. Chan,  C. J. Cramer,  M. S. Gordon,  W. J. Hehre,  A. Klamt,  
 M. W. Schmidt,  C. D. Sherrill,  D. G. Truhlar,  A. Aspuru-Guzik,  R. Baer,  
 A. T. Bell,  N. A. Besley,  Jeng-Da Chai,  R. A. DiStasio Jr.,  A. Dreuw,  
 B. D. Dunietz,  T. R. Furlani,  Chao-Ping Hsu,  Yousung Jung,  Jing Kong,  
 D. S. Lambrecht,  WanZhen Liang,  C. Ochsenfeld,  V. A. Rassolov,  
 L. V. Slipchenko,  J. E. Subotnik,  T. Van Voorhis,  J. M. Herbert,  
 A. I. Krylov,  P. M. W. Gill,  M. Head-Gordon

 Contributors to earlier versions of Q-Chem not listed above: 
 R. D. Adamson,  B. Austin,  J. Baker,  G. J. O. Beran,  K. Brandhorst,  
 S. T. Brown,  E. F. C. Byrd,  A. K. Chakraborty,  C.-L. Cheng,  
 Siu Hung Chien,  D. M. Chipman,  D. L. Crittenden,  H. Dachsel,  
 R. J. Doerksen,  A. D. Dutoi,  L. Fusti-Molnar,  W. A. Goddard III,  
 A. Golubeva-Zadorozhnaya,  S. R. Gwaltney,  G. Hawkins,  A. Heyden,  
 S. Hirata,  G. Kedziora,  F. J. Keil,  C. Kelley,  Jihan Kim,  R. A. King,  
 R. Z. Khaliullin,  P. P. Korambath,  W. Kurlancheek,  A. M. Lee,  M. S. Lee,  
 S. V. Levchenko,  Ching Yeh Lin,  D. Liotard,  R. C. Lochan,  I. Lotan,  
 P. E. Maslen,  N. Nair,  D. P. O'Neill,  D. Neuhauser,  E. Neuscamman,  
 C. M. Oana,  R. Olson,  B. Peters,  R. Peverati,  P. A. Pieniazek,  
 Y. M. Rhee,  J. Ritchie,  M. A. Rohrdanz,  E. Rosta,  N. J. Russ,  
 H. F. Schaefer III,  N. E. Schultz,  N. Shenvi,  A. C. Simmonett,  A. Sodt,  
 D. Stuck,  K. S. Thanthiriwatte,  V. Vanovschi,  Tao Wang,  A. Warshel,  
 C. F. Williams,  Q. Wu,  X. Xu,  W. Zhang

 Please cite Q-Chem as follows:
 Y. Shao et al., Mol. Phys. 113, 184-215 (2015)
 DOI: 10.1080/00268976.2014.952696

 Q-Chem 5.0.2 for Intel X86 EM64T Linux

 Parts of Q-Chem use Armadillo 5.200.1 (Boston Tea Smuggler).
 http://arma.sourceforge.net/

 Q-Chem begins on Thu Feb  1 12:18:27 2018  


Host: 0

     Scratch files written to /home/jcartus/scratch/37_HF-mNH2_mono2.dir//
 Using version located at /usr/local/qchem/bin/qchem

 Parallel job on  1  processors

Total Memory Limit in MB = 2000
Mega-Array Size in MB = 192

Checking the input file for inconsistencies... 	...done.
Finally everything over in PARseQInput

--------------------------------------------------------------
User input:
--------------------------------------------------------------
$rem
SCF_PRINT                     1
BASIS                         6-311++g**
SCF_SAVE_MATRICES             1
SCF_CONVERGENCE               5
SCF_FINAL_PRINT               1
METHOD                        hf
JOBTYPE                       sp
$end

$molecule
0 1
N    0.052011732    0.047562391    2.873452643
H    1.0068262    0.080163433    3.205933085
C    -0.623816269    -1.146237096    3.397788453
H    -1.646683561    -1.160140608    3.032274493
H    -0.124806297    -2.030639328    3.011967991
H    -0.641816332    -1.203100448    4.486612449
H    -0.39708885    0.883158389    3.224595791
$end


--------------------------------------------------------------
 ----------------------------------------------------------------
             Standard Nuclear Orientation (Angstroms)
    I     Atom           X                Y                Z
 ----------------------------------------------------------------
    1      N       0.7508148097    -0.0000073581     0.1248992367
    2      H       1.1449437548     0.8087461656    -0.3375473581
    3      C      -0.7108100368     0.0000026863    -0.0182145361
    4      H      -1.1129320526    -0.8767217829     0.4814887250
    5      H      -1.1129493807     0.8766437718     0.4816054760
    6      H      -1.0548583439     0.0000655536    -1.0529733948
    7      H       1.1449525751    -0.8086983195    -0.3375808882
 ----------------------------------------------------------------
 Molecular Point Group                 C1    NOp =  1
 Largest Abelian Subgroup              C1    NOp =  1
 Nuclear Repulsion Energy =    42.0363720081 hartrees
 There are        9 alpha and        9 beta electrons
 Requested basis set is 6-311++G(d,p)
 There are 37 shells and 79 basis functions

 Total QAlloc Memory Limit   2000 MB
 Mega-Array Size       188 MB
 MEM_STATIC part       192 MB

finished with qalloc call

                       Distance Matrix (Angstroms)
             N (  1)   H (  2)   C (  3)   H (  4)   H (  5)   H (  6)
   H (  2)  1.011571
   C (  3)  1.468615  2.049356
   H (  4)  2.090296  2.934216  1.086302
   H (  5)  2.090305  2.402853  1.086294  1.753366
   H (  6)  2.155885  2.450495  1.090456  1.768248  1.768247
   H (  7)  1.011540  1.617444  2.049353  2.402820  2.934206  2.450521


 Job number = 2, Threshold = 1.00E-08
Integral type ranges set in mkLRange.C for JobNum: 2  <1-21|1-21>
Symmetry turned off temporarily
 Using the largest function pair in Schwarz integrals
Total number of integrals generated =           38176
Symmetry turned back on
 A cutoff of  1.0D-08 yielded    701 shell pairs
 There are      3241 function pairs (      3412 Cartesian)
 Job number = 11, Threshold = 1.00E-08
Integral type ranges set in mkLRange.C for JobNum: 11  <1-21|22-22>
Total number of integrals generated =           23884
 Smallest overlap matrix eigenvalue = 6.12E-04
 Multipole matrices computed through 2nd order

 Scale SEOQF with 1.000000e-01/1.000000e-01/1.000000e-01

 Standard Electronic Orientation quadrupole field applied
 Nucleus-field energy     =     0.0000000005 hartrees
 ENuRep (before)= 42.0363720081
 ENucField = 0.0000000005
 ENuRep (after) = 42.0363720086
 Guess from superposition of atomic densities
 Warning:  Energy on first SCF cycle will be non-variational
 SAD guess density has 18.000000 electrons

 ==================================================
    GEN_SCFMAN: A general SCF calculation manager  
                                                   
    Authors:                                       
        -- Eric Jon Sundstrom 2008-2014            
        -- Paul Horn 2010-2015                     
        -- Yuezhi Mao 2012-                        
        -- Dmitri Zuev 2014                        
        -- Alec White 2015-                        
        -- David Stuck 2015                        
        -- Shaama M.S. 2015                        
        -- Shane Yost 2015-                         
        -- Joonho Lee 2016-                        
        -- David Small 2016-                       
        -- Daniel Levine 2016-                     
        -- Susi Lehtola 2017-                      
        -- Hugh Burton 2017-                       
 ==================================================
 Hartree-Fock
Finding J and K together
 Job number = 22, Threshold = 1.00E-08
Integral type ranges set in mkLRange.C for JobNum: 22  <1-21|1-21>
 MakeJK  time:  CPU       0.56 s  wall       0.57 s
 HF Exchange:              -13.50704780356622
 One-Electron:             -209.31407371931553
 Total Coulomb:             85.17243671237971
 Nuclear repulsion:         42.03637200856807
 A restricted SCF calculation will be
 performed using DIIS
 SCF converges when DIIS error is below 1.0e-05
 ---------------------------------------
  Cycle       Energy         DIIS error
 ---------------------------------------
Finding J and K together
 Job number = 22, Threshold = 1.00E-08
Integral type ranges set in mkLRange.C for JobNum: 22  <1-21|1-21>
 MakeJK  time:  CPU       1.28 s  wall       1.32 s
 HF Exchange:              -13.57571908986870
 One-Electron:             -211.76409675077579
 Total Coulomb:             88.08415378056912
 Nuclear repulsion:         42.03637200856807
    1     -95.6123128019      6.76e-02  
Finding J and K together
 Job number = 22, Threshold = 1.00E-08
Integral type ranges set in mkLRange.C for JobNum: 22  <1-21|1-21>
 MakeJK  time:  CPU       1.27 s  wall       1.33 s
 HF Exchange:              -13.54051399667530
 One-Electron:             -211.09779726511533
 Total Coulomb:             87.35944556386447
 Nuclear repulsion:         42.03637200856807
    2     -95.2192900515      5.49e-03  
Finding J and K together
 Job number = 22, Threshold = 1.00E-08
Integral type ranges set in mkLRange.C for JobNum: 22  <1-21|1-21>
 MakeJK  time:  CPU       1.27 s  wall       1.33 s
 HF Exchange:              -13.59217172281607
 One-Electron:             -211.49591180995469
 Total Coulomb:             87.80641270855587
 Nuclear repulsion:         42.03637200856807
    3     -95.2424936894      2.06e-03  
Finding J and K together
 Job number = 22, Threshold = 1.00E-08
Integral type ranges set in mkLRange.C for JobNum: 22  <1-21|1-21>
 MakeJK  time:  CPU       1.26 s  wall       1.29 s
 HF Exchange:              -13.58521055799938
 One-Electron:             -211.39256631462459
 Total Coulomb:             87.69568905844355
 Nuclear repulsion:         42.03637200856807
    4     -95.2452988156      6.99e-04  
Finding J and K together
 Job number = 22, Threshold = 1.00E-08
Integral type ranges set in mkLRange.C for JobNum: 22  <1-21|1-21>
 MakeJK  time:  CPU       1.25 s  wall       1.29 s
 HF Exchange:              -13.58686569447964
 One-Electron:             -211.39942170874045
 Total Coulomb:             87.70418251566268
 Nuclear repulsion:         42.03637200856807
    5     -95.2457158056      1.01e-04  
Finding J and K together
 Job number = 22, Threshold = 1.00E-08
Integral type ranges set in mkLRange.C for JobNum: 22  <1-21|1-21>
 MakeJK  time:  CPU       1.28 s  wall       1.30 s
 HF Exchange:              -13.58694821891253
 One-Electron:             -211.39890015510611
 Total Coulomb:             87.70374188726997
 Nuclear repulsion:         42.03637200856807
    6     -95.2457328790      2.49e-05  
    7     -95.2457344782      6.56e-06  Convergence criterion met
 ---------------------------------------
 SCF time:   CPU 8.30s  wall 8.00s 
 Total energy in the final basis set =      -95.2457344782
 HF Exchange:              -13.58694821891253
 One-Electron:             -211.39890015510611
 Total Coulomb:             87.70374188726997
 Nuclear repulsion:         42.03637200856807
Wall  1 = 8
Clock 1 = 8.32800960540771
 ==================================================
                  Done GEN_SCFMAN                  
 ==================================================

Symmetry turned off temporarily

 --------------------------------------------------------------

                    Orbital Energies (a.u.)
 --------------------------------------------------------------

 Alpha MOs
 -- Occupied --
-15.538 -11.242  -1.170  -0.898  -0.663  -0.604  -0.557  -0.520
 -0.391
 -- Virtual --
  0.040   0.062   0.067   0.077   0.100   0.127   0.160   0.161
  0.186   0.217   0.243   0.255   0.306   0.306   0.316   0.332
  0.364   0.370   0.455   0.582   0.589   0.681   0.721   0.819
  0.863   0.865   0.899   1.023   1.028   1.056   1.062   1.274
  1.306   1.391   1.587   1.666   1.727   1.814   1.824   1.922
  1.933   1.962   2.015   2.071   2.191   2.289   2.375   2.472
  2.566   2.748   2.768   2.805   2.813   2.839   2.930   2.993
  2.996   3.108   3.151   3.247   3.360   3.539   3.912   4.195
  4.232   4.596   5.228   5.331  25.111  37.022
 --------------------------------------------------------------

          Ground-State Mulliken Net Atomic Charges

     Atom                 Charge (a.u.)
  ----------------------------------------
      1 N                    -0.472647
      2 H                     0.220445
      3 C                    -0.306437
      4 H                     0.120936
      5 H                     0.120940
      6 H                     0.096313
      7 H                     0.220450
  ----------------------------------------
  Sum of atomic charges =     0.000000

 -----------------------------------------------------------------
                    Cartesian Multipole Moments
 -----------------------------------------------------------------
    Charge (ESU x 10^10)
                 0.0000
    Dipole Moment (Debye)
         X      -0.3869      Y       0.0001      Z      -1.5064
       Tot       1.5553
    Quadrupole Moments (Debye-Ang)
        XX     -14.0696     XY       0.0000     YY     -12.5841
        XZ      -2.2354     YZ       0.0001     ZZ     -15.5524
    Octopole Moments (Debye-Ang^2)
       XXX       2.4523    XXY       0.0001    XYY       1.9529
       YYY       0.0000    XXZ      -2.4023    XYZ       0.0000
       YYZ      -0.4399    XZZ      -0.9470    YZZ       0.0001
       ZZZ      -1.9444
    Hexadecapole Moments (Debye-Ang^3)
      XXXX     -76.3559   XXXY      -0.0001   XXYY     -14.5070
      XYYY       0.0002   YYYY     -23.2192   XXXZ      -4.5466
      XXYZ       0.0002   XYYZ      -2.1400   YYYZ       0.0001
      XXZZ     -18.1892   XYZZ      -0.0002   YYZZ      -8.0880
      XZZZ      -1.9886   YZZZ       0.0002   ZZZZ     -25.7840
 -----------------------------------------------------------------
 Mayer SCF Bond Order, atomic valence on the diagonal:

            1           2           3           4           5           6
    1   2.7548137   0.9697569   0.9184959  -0.0355821  -0.0355796  -0.0320322
    2   0.9697569   0.9466835  -0.0120337   0.0063779  -0.0020715  -0.0006445
    3   0.9184959  -0.0120337   3.8590113   0.9906952   0.9906915   0.9831957
    4  -0.0355821   0.0063779   0.9906952   0.9164766  -0.0191468  -0.0237968
    5  -0.0355796  -0.0020715   0.9906915  -0.0191468   0.9164740  -0.0237968
    6  -0.0320322  -0.0006445   0.9831957  -0.0237968  -0.0237968   0.9022810
    7   0.9697548  -0.0147016  -0.0120333  -0.0020706   0.0063772  -0.0006444
            7
    1   0.9697548
    2  -0.0147016
    3  -0.0120333
    4  -0.0020706
    5   0.0063772
    6  -0.0006444
    7   0.9466820


 JobOver = TRUE
Archival summary:
1\1\qciep03\SP\HF\BasisUnspecified\115\jcartus\ThuFeb112:18:362018ThuFeb112:18:362018\0\\#,HF,BasisUnspecified,\\0,1\N\H,1,1.01154\H,1,1.01157,2,106.162\C,1,1.46861,2,110.074,3,119.101,0\H,4,1.08629,1,108.881,2,-179.812,0\H,4,1.0863,1,108.88,2,63.125,0\H,4,1.09046,1,113.984,2,-58.3429,0\\HF=-95.2457345\\@

 Total job time:  8.88s(wall), 8.52s(cpu) 
 Thu Feb  1 12:18:36 2018

        *************************************************************
        *                                                           *
        *  Thank you very much for using Q-Chem.  Have a nice day.  *
        *                                                           *
        *************************************************************


*** MISSION COMPLETED -- STARFLEET OUT ***

0 sent ACK to 0 
now end server 0 ... 
