Process 0 of 1 is on qciep03 - thread support 0
initial socket setup ...start
initial socket setup ...done 
now start server 0 ... 
qciep03.tugraz.at 127.0.1
Q-Chem Developer Version! Running on 127.0.1.*
                  Welcome to Q-Chem
     A Quantum Leap Into The Future Of Chemistry


 Q-Chem 5.0, Q-Chem, Inc., Pleasanton, CA (2017)

 Yihan Shao,  Zhengting Gan,  E. Epifanovsky,  A. T. B. Gilbert,  M. Wormit,  
 J. Kussmann,  A. W. Lange,  A. Behn,  Jia Deng,  Xintian Feng,  D. Ghosh,  
 M. Goldey,  P. R. Horn,  L. D. Jacobson,  I. Kaliman,  T. Kus,  A. Landau,  
 Jie Liu,  E. I. Proynov,  R. M. Richard,  R. P. Steele,  E. J. Sundstrom,  
 H. L. Woodcock III,  P. M. Zimmerman,  D. Zuev,  B. Albrecht,  E. Alguire,  
 S. A. Baeppler,  D. Barton,  Z. Benda,  Y. A. Bernard,  E. J. Berquist,  
 K. B. Bravaya,  H. Burton,  D. Casanova,  Chun-Min Chang,  Yunqing Chen,  
 A. Chien,  K. D. Closser,  M. P. Coons,  S. Dasgupta,  A. L. Dempwolff,  
 M. Diedenhofen,  Hainam Do,  R. G. Edgar,  Po-Tung Fang,  S. Fatehi,  
 Qingguo Feng,  J. Fosso-Tande,  Qinghui Ge,  A. Ghysels,  G. Gidofalvi,  
 J. Gomes,  J. Gonthier,  A. Gunina,  M. W. D. Hanson-Heine,  
 P. H. P. Harbach,  A. W. Hauser,  J. E. Herr,  E. G. Hohenstein,  
 Z. C. Holden,  Kerwin Hui,  T.-C. Jagau,  Hyunjun Ji,  B. Kaduk,  
 K. Khistyaev,  Jaehoon Kim,  P. Klunzinger,  K. Koh,  D. Kosenkov,  
 L. Koulias,  T. Kowalczyk,  C. M. Krauter,  A. Kunitsa,  Ka Un Lao,  
 A. Laurent,  K. V. Lawler,  Joonho Lee,  D. Lefrancois,  S. Lehtola,  
 D. S. Levine,  Yi-Pei Li,  You-Sheng Lin,  Fenglai Liu,  E. Livshits,  
 A. Luenser,  P. Manohar,  E. Mansoor,  S. F. Manzer,  Shan-Ping Mao,  
 Yuezhi Mao,  N. Mardirossian,  A. V. Marenich,  T. Markovich,  
 L. A. Martinez-Martinez,  S. A. Maurer,  N. J. Mayhall,  S. C. McKenzie,  
 J.-M. Mewes,  A. F. Morrison,  J. W. Mullinax,  K. Nanda,  
 T. S. Nguyen-Beck,  R. Olivares-Amaya,  J. A. Parkhill,  T. M. Perrine,  
 F. Plasser,  S. Prager,  A. Prociuk,  E. Ramos,  D. R. Rehn,  F. Rob,  
 M. Schneider,  N. Sergueev,  S. M. Sharada,  S. Sharma,  D. W. Small,  
 T. Stauch,  T. Stein,  Yu-Chuan Su,  A. J. W. Thom,  A. Tkatchenko,  
 T. Tsuchimochi,  L. Vogt,  O. Vydrov,  M. A. Watson,  J. Wenzel,  
 M. de Wergifosse,  T. A. Wesolowski,  A. White,  J. Witte,  A. Yamada,  
 Jun Yang,  K. Yao,  S. Yeganeh,  S. R. Yost,  Zhi-Qiang You,  A. Zech,  
 Igor Ying Zhang,  Xing Zhang,  Yan Zhao,  Ying Zhu,  B. R. Brooks,  
 G. K. L. Chan,  C. J. Cramer,  M. S. Gordon,  W. J. Hehre,  A. Klamt,  
 M. W. Schmidt,  C. D. Sherrill,  D. G. Truhlar,  A. Aspuru-Guzik,  R. Baer,  
 A. T. Bell,  N. A. Besley,  Jeng-Da Chai,  R. A. DiStasio Jr.,  A. Dreuw,  
 B. D. Dunietz,  T. R. Furlani,  Chao-Ping Hsu,  Yousung Jung,  Jing Kong,  
 D. S. Lambrecht,  WanZhen Liang,  C. Ochsenfeld,  V. A. Rassolov,  
 L. V. Slipchenko,  J. E. Subotnik,  T. Van Voorhis,  J. M. Herbert,  
 A. I. Krylov,  P. M. W. Gill,  M. Head-Gordon

 Contributors to earlier versions of Q-Chem not listed above: 
 R. D. Adamson,  B. Austin,  J. Baker,  G. J. O. Beran,  K. Brandhorst,  
 S. T. Brown,  E. F. C. Byrd,  A. K. Chakraborty,  C.-L. Cheng,  
 Siu Hung Chien,  D. M. Chipman,  D. L. Crittenden,  H. Dachsel,  
 R. J. Doerksen,  A. D. Dutoi,  L. Fusti-Molnar,  W. A. Goddard III,  
 A. Golubeva-Zadorozhnaya,  S. R. Gwaltney,  G. Hawkins,  A. Heyden,  
 S. Hirata,  G. Kedziora,  F. J. Keil,  C. Kelley,  Jihan Kim,  R. A. King,  
 R. Z. Khaliullin,  P. P. Korambath,  W. Kurlancheek,  A. M. Lee,  M. S. Lee,  
 S. V. Levchenko,  Ching Yeh Lin,  D. Liotard,  R. C. Lochan,  I. Lotan,  
 P. E. Maslen,  N. Nair,  D. P. O'Neill,  D. Neuhauser,  E. Neuscamman,  
 C. M. Oana,  R. Olson,  B. Peters,  R. Peverati,  P. A. Pieniazek,  
 Y. M. Rhee,  J. Ritchie,  M. A. Rohrdanz,  E. Rosta,  N. J. Russ,  
 H. F. Schaefer III,  N. E. Schultz,  N. Shenvi,  A. C. Simmonett,  A. Sodt,  
 D. Stuck,  K. S. Thanthiriwatte,  V. Vanovschi,  Tao Wang,  A. Warshel,  
 C. F. Williams,  Q. Wu,  X. Xu,  W. Zhang

 Please cite Q-Chem as follows:
 Y. Shao et al., Mol. Phys. 113, 184-215 (2015)
 DOI: 10.1080/00268976.2014.952696

 Q-Chem 5.0.2 for Intel X86 EM64T Linux

 Parts of Q-Chem use Armadillo 5.200.1 (Boston Tea Smuggler).
 http://arma.sourceforge.net/

 Q-Chem begins on Thu Feb  1 12:10:47 2018  


Host: 0

     Scratch files written to /home/jcartus/scratch/29_CF3Br-ben.dir//
 Using version located at /usr/local/qchem/bin/qchem

 Parallel job on  1  processors

Total Memory Limit in MB = 2000
Mega-Array Size in MB = 192

Checking the input file for inconsistencies... 	...done.
Finally everything over in PARseQInput

--------------------------------------------------------------
User input:
--------------------------------------------------------------
$rem
SCF_PRINT                     1
BASIS                         6-311++g**
SCF_SAVE_MATRICES             1
SCF_CONVERGENCE               5
SCF_FINAL_PRINT               1
METHOD                        hf
JOBTYPE                       sp
$end

$molecule
0 1
H    0.002144194    0.361043475    0.029799709
C    0.015020592    0.274789738    1.107648016
C    1.227632658    0.29665504    1.794629427
C    1.243958826    0.183702791    3.183703934
C    0.047958213    0.048915002    3.886484583
C    -1.165135654    0.026954348    3.200213281
C    -1.181832083    0.139828643    1.810376587
H    2.155807907    0.399177037    1.249441585
H    2.184979344    0.198598553    3.716170761
H    0.060934662    -0.040672756    4.964014252
H    -2.093220602    -0.078628959    3.745125056
H    -2.122845437    0.123257119    1.277645797
Br    -0.268325907    -3.194209024    1.99445895
C    0.049999933    -5.089197474    1.929391171
F    0.078949601    -5.512441335    0.671851563
F    1.211983937    -5.3839963    2.498664481
F    -0.909987405    -5.743747328    2.570721738
$end


--------------------------------------------------------------
 ----------------------------------------------------------------
             Standard Nuclear Orientation (Angstroms)
    I     Atom           X                Y                Z
 ----------------------------------------------------------------
    1      H      -2.6941455220     0.9914804048     2.2453191986
    2      C      -2.7307602290     0.5375381135     1.2645244998
    3      C      -2.8424158588    -0.8462708237     1.1402046756
    4      C      -2.8878190101    -1.4311425649    -0.1240802371
    5      C      -2.8216768755    -0.6327429997    -1.2645490912
    6      C      -2.7100022165     0.7512120066    -1.1410800201
    7      C      -2.6644315372     1.3367265162     0.1237367593
    8      H      -2.8917023421    -1.4660846487     2.0248806054
    9      H      -2.9723343577    -2.5048677845    -0.2201725351
   10      H      -2.8549440926    -1.0868320742    -2.2453451694
   11      H      -2.6576439116     1.3708857845    -2.0257728283
   12      H      -2.5782214618     2.4104594271     0.2199048487
   13      Br      0.6179992051     0.2438371735    -0.0004740345
   14      C       2.5048892733    -0.1252037069     0.0005657403
   15      F       3.0676453090     0.3352607830     1.1108167987
   16      F       2.7216873039    -1.4326118410    -0.0692043092
   17      F       3.0920360796     0.4540131214    -1.0391854753
 ----------------------------------------------------------------
 Molecular Point Group                 C1    NOp =  1
 Largest Abelian Subgroup              C1    NOp =  1
 Nuclear Repulsion Energy =   902.8703949137 hartrees
 There are       55 alpha and       55 beta electrons
 Requested basis set is 6-311++G(d,p)
 There are 109 shells and 310 basis functions

 Total QAlloc Memory Limit   2000 MB
 Mega-Array Size       188 MB
 MEM_STATIC part       192 MB

finished with qalloc call
 Job number = 2, Threshold = 1.00E-08
Integral type ranges set in mkLRange.C for JobNum: 2  <1-21|1-21>
Symmetry turned off temporarily
 Using the largest function pair in Schwarz integrals
Total number of integrals generated =          595514
Symmetry turned back on
 A cutoff of  1.0D-08 yielded   4354 shell pairs
 There are     35455 function pairs (     38168 Cartesian)
 Job number = 11, Threshold = 1.00E-08
Integral type ranges set in mkLRange.C for JobNum: 11  <1-21|22-22>
Total number of integrals generated =          645745
 Smallest overlap matrix eigenvalue = 1.04E-06

 Q-Chem warning in module /usr/local/qchem/stvman/mkSTV.C, line 295:

 Overlap eigenvalue is smaller than square root of threshold

 Multipole matrices computed through 2nd order

 Scale SEOQF with 1.000000e-01/1.000000e-01/1.000000e-01

 Standard Electronic Orientation quadrupole field applied
 Nucleus-field energy     =     0.0000000194 hartrees
 ENuRep (before)= 902.8703949137
 ENucField = 0.0000000194
 ENuRep (after) = 902.8703949331
 Guess from superposition of atomic densities
 Warning:  Energy on first SCF cycle will be non-variational
 SAD guess density has 110.000000 electrons

 ==================================================
    GEN_SCFMAN: A general SCF calculation manager  
                                                   
    Authors:                                       
        -- Eric Jon Sundstrom 2008-2014            
        -- Paul Horn 2010-2015                     
        -- Yuezhi Mao 2012-                        
        -- Dmitri Zuev 2014                        
        -- Alec White 2015-                        
        -- David Stuck 2015                        
        -- Shaama M.S. 2015                        
        -- Shane Yost 2015-                         
        -- Joonho Lee 2016-                        
        -- David Small 2016-                       
        -- Daniel Levine 2016-                     
        -- Susi Lehtola 2017-                      
        -- Hugh Burton 2017-                       
 ==================================================
 Hartree-Fock
Finding J and K together
 Job number = 22, Threshold = 1.00E-08
Integral type ranges set in mkLRange.C for JobNum: 22  <1-21|1-21>
 MakeJK  time:  CPU      21.00 s  wall      22.65 s
 HF Exchange:              -159.19660991499103
 One-Electron:             -6157.00398539381786
 Total Coulomb:            2270.63002659204176
 Nuclear repulsion:        902.87039493310181
 A restricted SCF calculation will be
 performed using DIIS
 SCF converges when DIIS error is below 1.0e-05
 ---------------------------------------
  Cycle       Energy         DIIS error
 ---------------------------------------
Finding J and K together
 Job number = 22, Threshold = 1.00E-08
Integral type ranges set in mkLRange.C for JobNum: 22  <1-21|1-21>
 MakeJK  time:  CPU      81.27 s  wall      81.35 s
 HF Exchange:              -158.33974172253119
 One-Electron:             -6158.05675265960326
 Total Coulomb:            2274.37554911953930
 Nuclear repulsion:        902.87039493310181
    1   -3142.7001737837      3.60e-02  
Finding J and K together
 Job number = 22, Threshold = 1.00E-08
Integral type ranges set in mkLRange.C for JobNum: 22  <1-21|1-21>
 MakeJK  time:  CPU      81.83 s  wall      81.92 s
 HF Exchange:              -158.12115503565107
 One-Electron:             -6159.18971656238045
 Total Coulomb:            2275.11877973926812
 Nuclear repulsion:        902.87039493310181
    2   -3139.1505503295      4.59e-03  
Finding J and K together
 Job number = 22, Threshold = 1.00E-08
Integral type ranges set in mkLRange.C for JobNum: 22  <1-21|1-21>
 MakeJK  time:  CPU      82.05 s  wall      82.14 s
 HF Exchange:              -158.36363231579779
 One-Electron:             -6160.18859977798547
 Total Coulomb:            2276.28604896186425
 Nuclear repulsion:        902.87039493310181
    3   -3139.3216969257      2.99e-03  
Finding J and K together
 Job number = 22, Threshold = 1.00E-08
Integral type ranges set in mkLRange.C for JobNum: 22  <1-21|1-21>
 MakeJK  time:  CPU      81.55 s  wall      81.65 s
 HF Exchange:              -158.33261866801450
 One-Electron:             -6159.64866722204351
 Total Coulomb:            2275.71238652875991
 Nuclear repulsion:        902.87039493310181
    4   -3139.3957881988      3.91e-04  
Finding J and K together
 Job number = 22, Threshold = 1.00E-08
Integral type ranges set in mkLRange.C for JobNum: 22  <1-21|1-21>
 MakeJK  time:  CPU      80.97 s  wall      82.16 s
 HF Exchange:              -158.35511197054751
 One-Electron:             -6159.89001429926702
 Total Coulomb:            2275.97604527178282
 Nuclear repulsion:        902.87039493310181
    5   -3139.3985044282      1.30e-04  
Finding J and K together
 Job number = 22, Threshold = 1.00E-08
Integral type ranges set in mkLRange.C for JobNum: 22  <1-21|1-21>
 MakeJK  time:  CPU      79.13 s  wall      80.22 s
 HF Exchange:              -158.35464760604015
 One-Electron:             -6159.87310037992938
 Total Coulomb:            2275.95864640691752
 Nuclear repulsion:        902.87039493310181
    6   -3139.3986860649      2.98e-05  
    7   -3139.3987066460      9.74e-06  Convergence criterion met
 ---------------------------------------
 SCF time:   CPU 513.21s  wall 517.00s 
 Total energy in the final basis set =    -3139.3987066460
 HF Exchange:              -158.35464760604015
 One-Electron:             -6159.87310037992938
 Total Coulomb:            2275.95864640691752
 Nuclear repulsion:        902.87039493310181
Wall  1 = 518
Clock 1 = 513.69305419921875
 ==================================================
                  Done GEN_SCFMAN                  
 ==================================================

Symmetry turned off temporarily

 --------------------------------------------------------------

                    Orbital Energies (a.u.)
 --------------------------------------------------------------

 Alpha MOs
 -- Occupied --
******* -65.190 -58.550 -58.548 -58.548 -26.366 -26.366 -26.366
-11.571 -11.247 -11.246 -11.245 -11.245 -11.244 -11.243  -9.869
 -7.484  -7.474  -7.474  -3.224  -3.219  -3.219  -3.208  -3.208
 -1.766  -1.666  -1.666  -1.162  -1.093  -1.025  -1.025  -0.963
 -0.855  -0.855  -0.834  -0.833  -0.810  -0.734  -0.734  -0.719
 -0.689  -0.689  -0.672  -0.652  -0.629  -0.598  -0.598  -0.557
 -0.506  -0.504  -0.504  -0.449  -0.448  -0.346  -0.345
 -- Virtual --
  0.040   0.047   0.047   0.064   0.064   0.075   0.086   0.100
  0.101   0.105   0.117   0.118   0.131   0.143   0.153   0.154
  0.159   0.172   0.172   0.178   0.178   0.186   0.191   0.192
  0.204   0.206   0.208   0.209   0.209   0.210   0.214   0.247
  0.247   0.252   0.256   0.262   0.272   0.277   0.301   0.313
  0.315   0.316   0.324   0.344   0.360   0.377   0.378   0.378
  0.405   0.406   0.419   0.423   0.425   0.426   0.436   0.442
  0.444   0.457   0.463   0.487   0.492   0.494   0.505   0.507
  0.513   0.515   0.542   0.585   0.597   0.599   0.604   0.633
  0.703   0.708   0.722   0.742   0.745   0.749   0.753   0.756
  0.777   0.796   0.803   0.819   0.820   0.837   0.843   0.858
  0.881   0.883   0.938   0.939   0.944   0.945   0.970   0.985
  0.993   0.999   1.014   1.032   1.041   1.058   1.062   1.100
  1.102   1.124   1.132   1.136   1.209   1.213   1.214   1.241
  1.286   1.327   1.337   1.384   1.384   1.430   1.432   1.515
  1.541   1.541   1.558   1.626   1.668   1.697   1.701   1.703
  1.704   1.729   1.731   1.787   1.789   1.799   1.820   1.839
  1.839   1.903   1.904   1.933   1.933   1.993   2.025   2.050
  2.055   2.091   2.091   2.099   2.099   2.125   2.181   2.183
  2.230   2.231   2.233   2.245   2.246   2.292   2.332   2.334
  2.343   2.344   2.372   2.373   2.383   2.595   2.633   2.655
  2.737   2.738   2.810   2.827   2.832   2.956   2.956   2.988
  3.020   3.041   3.041   3.057   3.064   3.085   3.125   3.202
  3.207   3.226   3.260   3.271   3.272   3.287   3.289   3.323
  3.323   3.473   3.541   3.769   3.770   3.910   3.914   3.946
  4.075   4.117   4.150   4.150   4.152   4.178   4.178   4.194
  4.276   4.276   4.403   4.403   4.492   4.554   4.555   4.558
  4.574   4.574   4.640   4.640   4.689   4.693   4.774   4.943
  5.270   5.373   5.373   6.887   6.892   6.938   6.951   6.952
  6.975   7.009   7.251   7.378   7.378   8.230   8.231   8.430
 24.555  24.764  25.137  25.138  25.253  25.253  25.365  49.487
 68.697  68.697  68.762 293.908 293.909 294.1401028.433
 --------------------------------------------------------------

          Ground-State Mulliken Net Atomic Charges

     Atom                 Charge (a.u.)
  ----------------------------------------
      1 H                     0.205699
      2 C                    -0.168409
      3 C                    -0.236313
      4 C                    -0.193028
      5 C                    -0.232403
      6 C                    -0.171316
      7 C                    -0.247246
      8 H                     0.204601
      9 H                     0.204496
     10 H                     0.204899
     11 H                     0.205395
     12 H                     0.203449
     13 Br                    0.074042
     14 C                     0.275478
     15 F                    -0.109609
     16 F                    -0.110333
     17 F                    -0.109404
  ----------------------------------------
  Sum of atomic charges =    -0.000000

 -----------------------------------------------------------------
                    Cartesian Multipole Moments
 -----------------------------------------------------------------
    Charge (ESU x 10^10)
                -0.0000
    Dipole Moment (Debye)
         X      -1.4801      Y       0.0718      Z      -0.0003
       Tot       1.4818
    Quadrupole Moments (Debye-Ang)
        XX     -81.8841     XY       0.7679     YY     -71.6883
        XZ      -0.0140     YZ       0.0009     ZZ     -71.6771
    Octopole Moments (Debye-Ang^2)
       XXX     118.6574    XXY      -3.2766    XYY      15.1489
       YYY       4.2474    XXZ       0.0870    XYZ       0.0422
       YYZ       0.2209    XZZ      14.5231    YZZ      -0.3551
       ZZZ      -0.2328
    Hexadecapole Moments (Debye-Ang^3)
      XXXX   -3042.0416   XXXY       5.4477   XXYY    -513.1027
      XYYY       6.1686   YYYY    -381.6726   XXXZ      -0.1928
      XXYZ       0.2450   XYYZ       0.5949   YYYZ      -0.1160
      XXZZ    -516.0948   XYZZ      -2.7225   YYZZ    -125.0124
      XZZZ      -0.7127   YZZZ       0.0414   ZZZZ    -372.0990
 -----------------------------------------------------------------
 Mayer SCF Bond Order, atomic valence on the diagonal:

            1           2           3           4           5           6
    1   0.9333934   0.7814356   0.0828897  -0.0248739   0.0091532  -0.0218957
    2   0.7814356   4.3972103   1.8104683  -0.1090018   0.0540763  -0.0479831
    3   0.0828897   1.8104683   4.4992219   1.8494008  -0.0932070   0.0586754
    4  -0.0248739  -0.1090018   1.8494008   4.4448228   1.8446010  -0.1045929
    5   0.0091532   0.0540763  -0.0932070   1.8446010   4.4909815   1.8056190
    6  -0.0218957  -0.0479831   0.0586754  -0.1045929   1.8056190   4.4035762
    7   0.0884728   1.8159814  -0.0503519   0.0749217  -0.0417659   1.8152112
    8   0.0094466   0.0913837   0.7710977   0.0912261  -0.0271052   0.0114635
    9   0.0006511  -0.0255270   0.0895152   0.7735165   0.0895435  -0.0252056
   10   0.0000202   0.0111157  -0.0269147   0.0902942   0.7721033   0.0908474
   11   0.0007030  -0.0223149   0.0092002  -0.0247641   0.0824180   0.7830382
   12   0.0090510   0.0872262  -0.0251630   0.0103737  -0.0248763   0.0880767
   13  -0.0021287  -0.0427726   0.0337672  -0.0245314   0.0316344  -0.0431972
   14   0.0000520  -0.0268417   0.0085209  -0.0198991   0.0074586  -0.0272349
   15   0.0003103   0.0059144  -0.0075583   0.0066005  -0.0057140   0.0195973
   16  -0.0003402  -0.0062982  -0.0036786   0.0038706  -0.0049431  -0.0045396
   17   0.0004464   0.0203482  -0.0074400   0.0076806  -0.0080142   0.0056965
            7           8           9          10          11          12
    1   0.0884728   0.0094466   0.0006511   0.0000202   0.0007030   0.0090510
    2   1.8159814   0.0913837  -0.0255270   0.0111157  -0.0223149   0.0872262
    3  -0.0503519   0.7710977   0.0895152  -0.0269147   0.0092002  -0.0251630
    4   0.0749217   0.0912261   0.7735165   0.0902942  -0.0247641   0.0103737
    5  -0.0417659  -0.0271052   0.0895435   0.7721033   0.0824180  -0.0248763
    6   1.8152112   0.0114635  -0.0252056   0.0908474   0.7830382   0.0880767
    7   4.5594890  -0.0240576   0.0111555  -0.0233912   0.0884344   0.7838673
    8  -0.0240576   0.9322790   0.0099259   0.0006123   0.0000187   0.0006751
    9   0.0111555   0.0099259   0.9308575   0.0098728   0.0006585   0.0000013
   10  -0.0233912   0.0006123   0.0098728   0.9321432   0.0093179   0.0006805
   11   0.0884344   0.0000187   0.0006585   0.0093179   0.9349866   0.0090422
   12   0.7838673   0.0006751   0.0000013   0.0006805   0.0090422   0.9425392
   13   0.0315636  -0.0022224  -0.0036718  -0.0022143  -0.0013935   0.0023728
   14   0.0019479   0.0003311  -0.0002200   0.0003185   0.0002405   0.0015282
   15  -0.0155183  -0.0002027   0.0000277  -0.0000638   0.0003759  -0.0004655
   16   0.0179857  -0.0001824   0.0005556  -0.0002567  -0.0002801   0.0006319
   17  -0.0149675  -0.0001315   0.0000584  -0.0001989   0.0002917  -0.0004829
           13          14          15          16          17
    1  -0.0021287   0.0000520   0.0003103  -0.0003402   0.0004464
    2  -0.0427726  -0.0268417   0.0059144  -0.0062982   0.0203482
    3   0.0337672   0.0085209  -0.0075583  -0.0036786  -0.0074400
    4  -0.0245314  -0.0198991   0.0066005   0.0038706   0.0076806
    5   0.0316344   0.0074586  -0.0057140  -0.0049431  -0.0080142
    6  -0.0431972  -0.0272349   0.0195973  -0.0045396   0.0056965
    7   0.0315636   0.0019479  -0.0155183   0.0179857  -0.0149675
    8  -0.0022224   0.0003311  -0.0002027  -0.0001824  -0.0001315
    9  -0.0036718  -0.0002200   0.0000277   0.0005556   0.0000584
   10  -0.0022143   0.0003185  -0.0000638  -0.0002567  -0.0001989
   11  -0.0013935   0.0002405   0.0003759  -0.0002801   0.0002917
   12   0.0023728   0.0015282  -0.0004655   0.0006319  -0.0004829
   13   0.8738808   1.3144689  -0.1400085  -0.1365918  -0.1411939
   14   1.3144689   4.5198659   1.0846156   1.0889998   1.0855796
   15  -0.1400085   1.0846156   0.9585016   0.0045919   0.0059991
   16  -0.1365918   1.0889998   0.0045919   0.9641066   0.0045819
   17  -0.1411939   1.0855796   0.0059991   0.0045819   0.9582533


 JobOver = TRUE
Archival summary:
1\1\qciep03\SP\HF\BasisUnspecified\r1376\jcartus\ThuFeb112:19:272018ThuFeb112:19:272018\0\\#,HF,BasisUnspecified,\\0,1\Br\C,1,1.92264\F,2,1.3271,1,110.45\F,2,1.32715,1,110.487,3,119.995,0\F,2,1.32717,1,110.487,3,-119.996,0\C,1,3.46182,2,172.362,3,167.327,0\H,6,1.08147,1,103.948,2,11.0236,0\C,6,1.39445,1,83.8877,2,-108.423,0\H,8,1.08137,6,119.987,1,102.485,0\C,8,1.39386,6,119.989,1,-77.4285,0\H,10,1.08132,8,119.983,6,179.869,0\C,10,1.39375,8,120.008,6,-0.00258635,0\H,12,1.08132,10,119.99,8,179.871,0\C,12,1.39373,10,120.022,8,-0.00320092,0\H,14,1.08133,12,120.012,10,179.879,0\C,14,1.39393,12,120.005,10,0.00348431,0\H,16,1.0814,14,120.023,12,179.938,0\\HF=-3139.39871\\@

 Total job time:  519.98s(wall), 515.40s(cpu) 
 Thu Feb  1 12:19:27 2018

        *************************************************************
        *                                                           *
        *  Thank you very much for using Q-Chem.  Have a nice day.  *
        *                                                           *
        *************************************************************


*** MISSION COMPLETED -- STARFLEET OUT ***

0 sent ACK to 0 
now end server 0 ... 
