Process 0 of 1 is on qciep03 - thread support 0
initial socket setup ...start
initial socket setup ...done 
now start server 0 ... 
qciep03.tugraz.at 127.0.1
Q-Chem Developer Version! Running on 127.0.1.*
                  Welcome to Q-Chem
     A Quantum Leap Into The Future Of Chemistry


 Q-Chem 5.0, Q-Chem, Inc., Pleasanton, CA (2017)

 Yihan Shao,  Zhengting Gan,  E. Epifanovsky,  A. T. B. Gilbert,  M. Wormit,  
 J. Kussmann,  A. W. Lange,  A. Behn,  Jia Deng,  Xintian Feng,  D. Ghosh,  
 M. Goldey,  P. R. Horn,  L. D. Jacobson,  I. Kaliman,  T. Kus,  A. Landau,  
 Jie Liu,  E. I. Proynov,  R. M. Richard,  R. P. Steele,  E. J. Sundstrom,  
 H. L. Woodcock III,  P. M. Zimmerman,  D. Zuev,  B. Albrecht,  E. Alguire,  
 S. A. Baeppler,  D. Barton,  Z. Benda,  Y. A. Bernard,  E. J. Berquist,  
 K. B. Bravaya,  H. Burton,  D. Casanova,  Chun-Min Chang,  Yunqing Chen,  
 A. Chien,  K. D. Closser,  M. P. Coons,  S. Dasgupta,  A. L. Dempwolff,  
 M. Diedenhofen,  Hainam Do,  R. G. Edgar,  Po-Tung Fang,  S. Fatehi,  
 Qingguo Feng,  J. Fosso-Tande,  Qinghui Ge,  A. Ghysels,  G. Gidofalvi,  
 J. Gomes,  J. Gonthier,  A. Gunina,  M. W. D. Hanson-Heine,  
 P. H. P. Harbach,  A. W. Hauser,  J. E. Herr,  E. G. Hohenstein,  
 Z. C. Holden,  Kerwin Hui,  T.-C. Jagau,  Hyunjun Ji,  B. Kaduk,  
 K. Khistyaev,  Jaehoon Kim,  P. Klunzinger,  K. Koh,  D. Kosenkov,  
 L. Koulias,  T. Kowalczyk,  C. M. Krauter,  A. Kunitsa,  Ka Un Lao,  
 A. Laurent,  K. V. Lawler,  Joonho Lee,  D. Lefrancois,  S. Lehtola,  
 D. S. Levine,  Yi-Pei Li,  You-Sheng Lin,  Fenglai Liu,  E. Livshits,  
 A. Luenser,  P. Manohar,  E. Mansoor,  S. F. Manzer,  Shan-Ping Mao,  
 Yuezhi Mao,  N. Mardirossian,  A. V. Marenich,  T. Markovich,  
 L. A. Martinez-Martinez,  S. A. Maurer,  N. J. Mayhall,  S. C. McKenzie,  
 J.-M. Mewes,  A. F. Morrison,  J. W. Mullinax,  K. Nanda,  
 T. S. Nguyen-Beck,  R. Olivares-Amaya,  J. A. Parkhill,  T. M. Perrine,  
 F. Plasser,  S. Prager,  A. Prociuk,  E. Ramos,  D. R. Rehn,  F. Rob,  
 M. Schneider,  N. Sergueev,  S. M. Sharada,  S. Sharma,  D. W. Small,  
 T. Stauch,  T. Stein,  Yu-Chuan Su,  A. J. W. Thom,  A. Tkatchenko,  
 T. Tsuchimochi,  L. Vogt,  O. Vydrov,  M. A. Watson,  J. Wenzel,  
 M. de Wergifosse,  T. A. Wesolowski,  A. White,  J. Witte,  A. Yamada,  
 Jun Yang,  K. Yao,  S. Yeganeh,  S. R. Yost,  Zhi-Qiang You,  A. Zech,  
 Igor Ying Zhang,  Xing Zhang,  Yan Zhao,  Ying Zhu,  B. R. Brooks,  
 G. K. L. Chan,  C. J. Cramer,  M. S. Gordon,  W. J. Hehre,  A. Klamt,  
 M. W. Schmidt,  C. D. Sherrill,  D. G. Truhlar,  A. Aspuru-Guzik,  R. Baer,  
 A. T. Bell,  N. A. Besley,  Jeng-Da Chai,  R. A. DiStasio Jr.,  A. Dreuw,  
 B. D. Dunietz,  T. R. Furlani,  Chao-Ping Hsu,  Yousung Jung,  Jing Kong,  
 D. S. Lambrecht,  WanZhen Liang,  C. Ochsenfeld,  V. A. Rassolov,  
 L. V. Slipchenko,  J. E. Subotnik,  T. Van Voorhis,  J. M. Herbert,  
 A. I. Krylov,  P. M. W. Gill,  M. Head-Gordon

 Contributors to earlier versions of Q-Chem not listed above: 
 R. D. Adamson,  B. Austin,  J. Baker,  G. J. O. Beran,  K. Brandhorst,  
 S. T. Brown,  E. F. C. Byrd,  A. K. Chakraborty,  C.-L. Cheng,  
 Siu Hung Chien,  D. M. Chipman,  D. L. Crittenden,  H. Dachsel,  
 R. J. Doerksen,  A. D. Dutoi,  L. Fusti-Molnar,  W. A. Goddard III,  
 A. Golubeva-Zadorozhnaya,  S. R. Gwaltney,  G. Hawkins,  A. Heyden,  
 S. Hirata,  G. Kedziora,  F. J. Keil,  C. Kelley,  Jihan Kim,  R. A. King,  
 R. Z. Khaliullin,  P. P. Korambath,  W. Kurlancheek,  A. M. Lee,  M. S. Lee,  
 S. V. Levchenko,  Ching Yeh Lin,  D. Liotard,  R. C. Lochan,  I. Lotan,  
 P. E. Maslen,  N. Nair,  D. P. O'Neill,  D. Neuhauser,  E. Neuscamman,  
 C. M. Oana,  R. Olson,  B. Peters,  R. Peverati,  P. A. Pieniazek,  
 Y. M. Rhee,  J. Ritchie,  M. A. Rohrdanz,  E. Rosta,  N. J. Russ,  
 H. F. Schaefer III,  N. E. Schultz,  N. Shenvi,  A. C. Simmonett,  A. Sodt,  
 D. Stuck,  K. S. Thanthiriwatte,  V. Vanovschi,  Tao Wang,  A. Warshel,  
 C. F. Williams,  Q. Wu,  X. Xu,  W. Zhang

 Please cite Q-Chem as follows:
 Y. Shao et al., Mol. Phys. 113, 184-215 (2015)
 DOI: 10.1080/00268976.2014.952696

 Q-Chem 5.0.2 for Intel X86 EM64T Linux

 Parts of Q-Chem use Armadillo 5.200.1 (Boston Tea Smuggler).
 http://arma.sourceforge.net/

 Q-Chem begins on Thu Feb  1 11:59:30 2018  


Host: 0

     Scratch files written to /home/jcartus/scratch/17_F3bromomethane-formaldehyde_mono1.dir//
 Using version located at /usr/local/qchem/bin/qchem

 Parallel job on  1  processors

Total Memory Limit in MB = 2000
Mega-Array Size in MB = 192

Checking the input file for inconsistencies... 	...done.
Finally everything over in PARseQInput

--------------------------------------------------------------
User input:
--------------------------------------------------------------
$rem
SCF_PRINT                     1
BASIS                         6-311++g**
SCF_SAVE_MATRICES             1
SCF_CONVERGENCE               5
SCF_FINAL_PRINT               1
METHOD                        hf
JOBTYPE                       sp
$end

$molecule
0 1
C    0.092348417    -0.047899443    -0.084180609
Br    1.850295174    0.401756602    0.541215366
F    -0.041248424    -1.365231569    -0.186834437
F    -0.830122197    0.403465307    0.756154716
F    -0.127685037    0.489606579    -1.278313038
$end


--------------------------------------------------------------
 ----------------------------------------------------------------
             Standard Nuclear Orientation (Angstroms)
    I     Atom           X                Y                Z
 ----------------------------------------------------------------
    1      C       0.8033039118     0.0006593707     0.0001314617
    2      Br     -1.1159894553    -0.0000057659     0.0000159227
    3      F       1.2680139788    -0.5797145668    -1.1003050430
    4      F       1.2682257506     1.2425864947     0.0481973769
    5      F       1.2681833222    -0.6632890854     1.0519581034
 ----------------------------------------------------------------
 Molecular Point Group                 C1    NOp =  1
 Largest Abelian Subgroup              C1    NOp =  1
 Nuclear Repulsion Energy =   368.1404116131 hartrees
 There are       34 alpha and       34 beta electrons
 Requested basis set is 6-311++G(d,p)
 There are 43 shells and 136 basis functions

 Total QAlloc Memory Limit   2000 MB
 Mega-Array Size       188 MB
 MEM_STATIC part       192 MB

finished with qalloc call

                       Distance Matrix (Angstroms)
             C (  1)   Br(  2)   F (  3)   F (  4)
   Br(  2)  1.919293
   F (  3)  1.328062  2.688911
   F (  4)  1.326969  2.689022  2.154029
   F (  5)  1.327885  2.689016  2.153885  2.154042

 Job number = 2, Threshold = 1.00E-08
Integral type ranges set in mkLRange.C for JobNum: 2  <1-21|1-21>
Symmetry turned off temporarily
 Using the largest function pair in Schwarz integrals
Total number of integrals generated =          167777
Symmetry turned back on
 A cutoff of  1.0D-08 yielded    788 shell pairs
 There are      8395 function pairs (      9275 Cartesian)
 Job number = 11, Threshold = 1.00E-08
Integral type ranges set in mkLRange.C for JobNum: 11  <1-21|22-22>
Total number of integrals generated =           46260
 Smallest overlap matrix eigenvalue = 5.33E-04
 Multipole matrices computed through 2nd order

 Scale SEOQF with 1.000000e-01/1.000000e-01/1.000000e-01

 Standard Electronic Orientation quadrupole field applied
 Nucleus-field energy     =     0.0000000025 hartrees
 ENuRep (before)= 368.1404116131
 ENucField = 0.0000000025
 ENuRep (after) = 368.1404116156
 Guess from superposition of atomic densities
 Warning:  Energy on first SCF cycle will be non-variational
 SAD guess density has 68.000000 electrons

 ==================================================
    GEN_SCFMAN: A general SCF calculation manager  
                                                   
    Authors:                                       
        -- Eric Jon Sundstrom 2008-2014            
        -- Paul Horn 2010-2015                     
        -- Yuezhi Mao 2012-                        
        -- Dmitri Zuev 2014                        
        -- Alec White 2015-                        
        -- David Stuck 2015                        
        -- Shaama M.S. 2015                        
        -- Shane Yost 2015-                         
        -- Joonho Lee 2016-                        
        -- David Small 2016-                       
        -- Daniel Levine 2016-                     
        -- Susi Lehtola 2017-                      
        -- Hugh Burton 2017-                       
 ==================================================
 Hartree-Fock
Finding J and K together
 Job number = 22, Threshold = 1.00E-08
Integral type ranges set in mkLRange.C for JobNum: 22  <1-21|1-21>
 MakeJK  time:  CPU       3.94 s  wall       4.11 s
 HF Exchange:              -125.02942523168586
 One-Electron:             -4785.58708767933695
 Total Coulomb:            1633.04734002806094
 Nuclear repulsion:        368.14041161562886
 A restricted SCF calculation will be
 performed using DIIS
 SCF converges when DIIS error is below 1.0e-05
 ---------------------------------------
  Cycle       Energy         DIIS error
 ---------------------------------------
Finding J and K together
 Job number = 22, Threshold = 1.00E-08
Integral type ranges set in mkLRange.C for JobNum: 22  <1-21|1-21>
 MakeJK  time:  CPU       7.51 s  wall       7.74 s
 HF Exchange:              -125.16217005384146
 One-Electron:             -4780.82268630130147
 Total Coulomb:            1629.38401733069054
 Nuclear repulsion:        368.14041161562886
    1   -2909.4287612673      4.84e-02  
Finding J and K together
 Job number = 22, Threshold = 1.00E-08
Integral type ranges set in mkLRange.C for JobNum: 22  <1-21|1-21>
 MakeJK  time:  CPU       7.35 s  wall       7.67 s
 HF Exchange:              -124.90257432360605
 One-Electron:             -4783.88492636147021
 Total Coulomb:            1632.07171506157761
 Nuclear repulsion:        368.14041161562886
    2   -2908.4604274088      9.55e-03  
Finding J and K together
 Job number = 22, Threshold = 1.00E-08
Integral type ranges set in mkLRange.C for JobNum: 22  <1-21|1-21>
 MakeJK  time:  CPU       7.60 s  wall       7.62 s
 HF Exchange:              -125.09838445319239
 One-Electron:             -4783.82005960498191
 Total Coulomb:            1632.13620089950723
 Nuclear repulsion:        368.14041161562886
    3   -2908.5753740079      6.54e-03  
Finding J and K together
 Job number = 22, Threshold = 1.00E-08
Integral type ranges set in mkLRange.C for JobNum: 22  <1-21|1-21>
 MakeJK  time:  CPU       7.66 s  wall       7.73 s
 HF Exchange:              -125.06903821663116
 One-Electron:             -4783.41878039963831
 Total Coulomb:            1631.70437981566829
 Nuclear repulsion:        368.14041161562886
    4   -2908.6418315430      5.97e-04  
Finding J and K together
 Job number = 22, Threshold = 1.00E-08
Integral type ranges set in mkLRange.C for JobNum: 22  <1-21|1-21>
 MakeJK  time:  CPU       7.71 s  wall       7.75 s
 HF Exchange:              -125.08760703013043
 One-Electron:             -4783.59362788746694
 Total Coulomb:            1631.89762128544294
 Nuclear repulsion:        368.14041161562886
    5   -2908.6430271850      2.47e-04  
Finding J and K together
 Job number = 22, Threshold = 1.00E-08
Integral type ranges set in mkLRange.C for JobNum: 22  <1-21|1-21>
 MakeJK  time:  CPU       7.68 s  wall       7.70 s
 HF Exchange:              -125.08707358245023
 One-Electron:             -4783.57555905239678
 Total Coulomb:            1631.87900412962904
 Nuclear repulsion:        368.14041161562886
    6   -2908.6432020165      5.57e-05  
Finding J and K together
 Job number = 22, Threshold = 1.00E-08
Integral type ranges set in mkLRange.C for JobNum: 22  <1-21|1-21>
 MakeJK  time:  CPU       7.22 s  wall       7.32 s
 HF Exchange:              -125.08734679786360
 One-Electron:             -4783.57800748587670
 Total Coulomb:            1631.88172458801614
 Nuclear repulsion:        368.14041161562886
    7   -2908.6432168896      1.35e-05  
    8   -2908.6432180801      3.83e-06  Convergence criterion met
 ---------------------------------------
 SCF time:   CPU 57.32s  wall 58.00s 
 Total energy in the final basis set =    -2908.6432180801
 HF Exchange:              -125.08734679786360
 One-Electron:             -4783.57800748587670
 Total Coulomb:            1631.88172458801614
 Nuclear repulsion:        368.14041161562886
Wall  1 = 58
Clock 1 = 57.40758895874023
 ==================================================
                  Done GEN_SCFMAN                  
 ==================================================

Symmetry turned off temporarily

 --------------------------------------------------------------

                    Orbital Energies (a.u.)
 --------------------------------------------------------------

 Alpha MOs
 -- Occupied --
******* -65.204 -58.565 -58.563 -58.563 -26.376 -26.376 -26.375
-11.584  -9.884  -7.499  -7.489  -7.489  -3.239  -3.234  -3.234
 -3.223  -3.223  -1.775  -1.675  -1.675  -1.107  -0.973  -0.864
 -0.864  -0.820  -0.743  -0.743  -0.698  -0.698  -0.681  -0.565
 -0.462  -0.462
 -- Virtual --
  0.065   0.080   0.105   0.105   0.111   0.126   0.126   0.166
  0.199   0.291   0.291   0.339   0.339   0.348   0.367   0.367
  0.399   0.413   0.437   0.438   0.477   0.496   0.496   0.525
  0.546   0.560   0.560   0.696   0.696   0.714   0.817   0.817
  0.851   0.993   0.994   1.057   1.204   1.408   1.408   1.503
  1.503   1.602   1.659   1.674   1.675   1.683   1.705   1.705
  1.965   2.073   2.073   2.167   2.167   2.290   2.290   2.310
  2.540   3.154   3.256   3.258   4.108   4.140   4.141   4.143
  4.169   4.169   4.171   4.266   4.266   4.531   4.531   4.543
  4.627   4.627   4.667   4.667   4.753   4.913   5.356   5.357
  6.849   6.849   6.928   6.935   6.935   6.945   6.979   7.168
  7.362   7.363   8.191   8.191   8.316  24.533  49.394  68.686
 68.686  68.747 293.869 293.869 294.0301028.320
 --------------------------------------------------------------

          Ground-State Mulliken Net Atomic Charges

     Atom                 Charge (a.u.)
  ----------------------------------------
      1 C                     0.222943
      2 Br                    0.101129
      3 F                    -0.108466
      4 F                    -0.107325
      5 F                    -0.108280
  ----------------------------------------
  Sum of atomic charges =     0.000000

 -----------------------------------------------------------------
                    Cartesian Multipole Moments
 -----------------------------------------------------------------
    Charge (ESU x 10^10)
                 0.0000
    Dipole Moment (Debye)
         X      -0.9352      Y       0.0065      Z       0.0013
       Tot       0.9352
    Quadrupole Moments (Debye-Ang)
        XX     -37.5864     XY       0.0102     YY     -40.0330
        XZ       0.0020     YZ      -0.0002     ZZ     -40.0388
    Octopole Moments (Debye-Ang^2)
       XXX     -15.9216    XXY       0.0066    XYY      -3.8143
       YYY      -1.3335    XXZ       0.0010    XYZ      -0.0002
       YYZ      -0.1563    XZZ      -3.8217    YZZ       1.3441
       ZZZ       0.1585
    Hexadecapole Moments (Debye-Ang^3)
      XXXX    -310.4459   XXXY       0.0268   XXYY     -75.4581
      XYYY      -1.3910   YYYY    -104.0361   XXXZ       0.0048
      XXYZ      -0.0004   XYYZ      -0.1634   YYYZ      -0.0007
      XXZZ     -75.4689   XYZZ       1.4113   YYZZ     -34.6805
      XZZZ       0.1677   YZZZ      -0.0004   ZZZZ    -104.0514
 -----------------------------------------------------------------
 Mayer SCF Bond Order, atomic valence on the diagonal:

            1           2           3           4           5
    1   4.4008784   1.2713158   1.0428576   1.0437060   1.0429990
    2   1.2713158   0.8949619  -0.1254634  -0.1254458  -0.1254446
    3   1.0428576  -0.1254634   0.9426772   0.0126502   0.0126327
    4   1.0437060  -0.1254458   0.0126502   0.9435608   0.0126504
    5   1.0429990  -0.1254446   0.0126327   0.0126504   0.9428375


 JobOver = TRUE
Archival summary:
1\1\qciep03\SP\HF\BasisUnspecified\r131\jcartus\ThuFeb112:00:292018ThuFeb112:00:292018\0\\#,HF,BasisUnspecified,\\0,1\Br\C,1,1.91929\F,2,1.32697,1,110.53\F,2,1.32789,1,110.485,3,120.053,0\F,2,1.32806,1,110.47,3,-120.029,0\\HF=-2908.64322\\@

 Total job time:  59.16s(wall), 57.83s(cpu) 
 Thu Feb  1 12:00:29 2018

        *************************************************************
        *                                                           *
        *  Thank you very much for using Q-Chem.  Have a nice day.  *
        *                                                           *
        *************************************************************


*** MISSION COMPLETED -- STARFLEET OUT ***

0 sent ACK to 0 
now end server 0 ... 
