Process 0 of 1 is on qciep03 - thread support 0
initial socket setup ...start
initial socket setup ...done 
now start server 0 ... 
qciep03.tugraz.at 127.0.1
Q-Chem Developer Version! Running on 127.0.1.*
                  Welcome to Q-Chem
     A Quantum Leap Into The Future Of Chemistry


 Q-Chem 5.0, Q-Chem, Inc., Pleasanton, CA (2017)

 Yihan Shao,  Zhengting Gan,  E. Epifanovsky,  A. T. B. Gilbert,  M. Wormit,  
 J. Kussmann,  A. W. Lange,  A. Behn,  Jia Deng,  Xintian Feng,  D. Ghosh,  
 M. Goldey,  P. R. Horn,  L. D. Jacobson,  I. Kaliman,  T. Kus,  A. Landau,  
 Jie Liu,  E. I. Proynov,  R. M. Richard,  R. P. Steele,  E. J. Sundstrom,  
 H. L. Woodcock III,  P. M. Zimmerman,  D. Zuev,  B. Albrecht,  E. Alguire,  
 S. A. Baeppler,  D. Barton,  Z. Benda,  Y. A. Bernard,  E. J. Berquist,  
 K. B. Bravaya,  H. Burton,  D. Casanova,  Chun-Min Chang,  Yunqing Chen,  
 A. Chien,  K. D. Closser,  M. P. Coons,  S. Dasgupta,  A. L. Dempwolff,  
 M. Diedenhofen,  Hainam Do,  R. G. Edgar,  Po-Tung Fang,  S. Fatehi,  
 Qingguo Feng,  J. Fosso-Tande,  Qinghui Ge,  A. Ghysels,  G. Gidofalvi,  
 J. Gomes,  J. Gonthier,  A. Gunina,  M. W. D. Hanson-Heine,  
 P. H. P. Harbach,  A. W. Hauser,  J. E. Herr,  E. G. Hohenstein,  
 Z. C. Holden,  Kerwin Hui,  T.-C. Jagau,  Hyunjun Ji,  B. Kaduk,  
 K. Khistyaev,  Jaehoon Kim,  P. Klunzinger,  K. Koh,  D. Kosenkov,  
 L. Koulias,  T. Kowalczyk,  C. M. Krauter,  A. Kunitsa,  Ka Un Lao,  
 A. Laurent,  K. V. Lawler,  Joonho Lee,  D. Lefrancois,  S. Lehtola,  
 D. S. Levine,  Yi-Pei Li,  You-Sheng Lin,  Fenglai Liu,  E. Livshits,  
 A. Luenser,  P. Manohar,  E. Mansoor,  S. F. Manzer,  Shan-Ping Mao,  
 Yuezhi Mao,  N. Mardirossian,  A. V. Marenich,  T. Markovich,  
 L. A. Martinez-Martinez,  S. A. Maurer,  N. J. Mayhall,  S. C. McKenzie,  
 J.-M. Mewes,  A. F. Morrison,  J. W. Mullinax,  K. Nanda,  
 T. S. Nguyen-Beck,  R. Olivares-Amaya,  J. A. Parkhill,  T. M. Perrine,  
 F. Plasser,  S. Prager,  A. Prociuk,  E. Ramos,  D. R. Rehn,  F. Rob,  
 M. Schneider,  N. Sergueev,  S. M. Sharada,  S. Sharma,  D. W. Small,  
 T. Stauch,  T. Stein,  Yu-Chuan Su,  A. J. W. Thom,  A. Tkatchenko,  
 T. Tsuchimochi,  L. Vogt,  O. Vydrov,  M. A. Watson,  J. Wenzel,  
 M. de Wergifosse,  T. A. Wesolowski,  A. White,  J. Witte,  A. Yamada,  
 Jun Yang,  K. Yao,  S. Yeganeh,  S. R. Yost,  Zhi-Qiang You,  A. Zech,  
 Igor Ying Zhang,  Xing Zhang,  Yan Zhao,  Ying Zhu,  B. R. Brooks,  
 G. K. L. Chan,  C. J. Cramer,  M. S. Gordon,  W. J. Hehre,  A. Klamt,  
 M. W. Schmidt,  C. D. Sherrill,  D. G. Truhlar,  A. Aspuru-Guzik,  R. Baer,  
 A. T. Bell,  N. A. Besley,  Jeng-Da Chai,  R. A. DiStasio Jr.,  A. Dreuw,  
 B. D. Dunietz,  T. R. Furlani,  Chao-Ping Hsu,  Yousung Jung,  Jing Kong,  
 D. S. Lambrecht,  WanZhen Liang,  C. Ochsenfeld,  V. A. Rassolov,  
 L. V. Slipchenko,  J. E. Subotnik,  T. Van Voorhis,  J. M. Herbert,  
 A. I. Krylov,  P. M. W. Gill,  M. Head-Gordon

 Contributors to earlier versions of Q-Chem not listed above: 
 R. D. Adamson,  B. Austin,  J. Baker,  G. J. O. Beran,  K. Brandhorst,  
 S. T. Brown,  E. F. C. Byrd,  A. K. Chakraborty,  C.-L. Cheng,  
 Siu Hung Chien,  D. M. Chipman,  D. L. Crittenden,  H. Dachsel,  
 R. J. Doerksen,  A. D. Dutoi,  L. Fusti-Molnar,  W. A. Goddard III,  
 A. Golubeva-Zadorozhnaya,  S. R. Gwaltney,  G. Hawkins,  A. Heyden,  
 S. Hirata,  G. Kedziora,  F. J. Keil,  C. Kelley,  Jihan Kim,  R. A. King,  
 R. Z. Khaliullin,  P. P. Korambath,  W. Kurlancheek,  A. M. Lee,  M. S. Lee,  
 S. V. Levchenko,  Ching Yeh Lin,  D. Liotard,  R. C. Lochan,  I. Lotan,  
 P. E. Maslen,  N. Nair,  D. P. O'Neill,  D. Neuhauser,  E. Neuscamman,  
 C. M. Oana,  R. Olson,  B. Peters,  R. Peverati,  P. A. Pieniazek,  
 Y. M. Rhee,  J. Ritchie,  M. A. Rohrdanz,  E. Rosta,  N. J. Russ,  
 H. F. Schaefer III,  N. E. Schultz,  N. Shenvi,  A. C. Simmonett,  A. Sodt,  
 D. Stuck,  K. S. Thanthiriwatte,  V. Vanovschi,  Tao Wang,  A. Warshel,  
 C. F. Williams,  Q. Wu,  X. Xu,  W. Zhang

 Please cite Q-Chem as follows:
 Y. Shao et al., Mol. Phys. 113, 184-215 (2015)
 DOI: 10.1080/00268976.2014.952696

 Q-Chem 5.0.2 for Intel X86 EM64T Linux

 Parts of Q-Chem use Armadillo 5.200.1 (Boston Tea Smuggler).
 http://arma.sourceforge.net/

 Q-Chem begins on Thu Feb  1 11:59:35 2018  


Host: 0

     Scratch files written to /home/jcartus/scratch/10_chloromethane-chloromethane_mono2.dir//
 Using version located at /usr/local/qchem/bin/qchem

 Parallel job on  1  processors

Total Memory Limit in MB = 2000
Mega-Array Size in MB = 192

Checking the input file for inconsistencies... 	...done.
Finally everything over in PARseQInput

--------------------------------------------------------------
User input:
--------------------------------------------------------------
$rem
SCF_PRINT                     1
BASIS                         6-311++g**
SCF_SAVE_MATRICES             1
SCF_CONVERGENCE               5
SCF_FINAL_PRINT               1
METHOD                        hf
JOBTYPE                       sp
$end

$molecule
0 1
C    -0.248215463    0.147563142    -2.354598055
Cl    -0.430872029    0.266976908    -4.12111099
H    -1.097215819    -0.394125438    -1.955018213
H    0.671578312    -0.381551292    -2.136340484
H    -0.212788793    1.148538795    -1.941709395
$end


--------------------------------------------------------------
 ----------------------------------------------------------------
             Standard Nuclear Orientation (Angstroms)
    I     Atom           X                Y                Z
 ----------------------------------------------------------------
    1      C       1.1238641222    -0.0000134715    -0.0000030437
    2      Cl     -0.6560771740    -0.0000139085     0.0000107391
    3      H       1.4696442598     0.9898002103    -0.2731278210
    4      H       1.4703691154    -0.2582083798     0.9934196856
    5      H       1.4701138502    -0.7312745572    -0.7204561670
 ----------------------------------------------------------------
 Molecular Point Group                 C1    NOp =  1
 Largest Abelian Subgroup              C1    NOp =  1
 Nuclear Repulsion Energy =    51.4402990596 hartrees
 There are       13 alpha and       13 beta electrons
 Requested basis set is 6-311++G(d,p)
 There are 34 shells and 73 basis functions

 Total QAlloc Memory Limit   2000 MB
 Mega-Array Size       188 MB
 MEM_STATIC part       192 MB

finished with qalloc call

                       Distance Matrix (Angstroms)
             C (  1)   Cl(  2)   H (  3)   H (  4)
   Cl(  2)  1.779941
   H (  3)  1.083463  2.360726
   H (  4)  1.083337  2.361207  1.778108
   H (  5)  1.083367  2.361039  1.778258  1.777966

 Job number = 2, Threshold = 1.00E-08
Integral type ranges set in mkLRange.C for JobNum: 2  <1-21|1-21>
Symmetry turned off temporarily
 Using the largest function pair in Schwarz integrals
Total number of integrals generated =           31783
Symmetry turned back on
 A cutoff of  1.0D-08 yielded    584 shell pairs
 There are      2764 function pairs (      2923 Cartesian)
 Job number = 11, Threshold = 1.00E-08
Integral type ranges set in mkLRange.C for JobNum: 11  <1-21|22-22>
Total number of integrals generated =           14570
 Smallest overlap matrix eigenvalue = 4.67E-04
 Multipole matrices computed through 2nd order

 Scale SEOQF with 1.000000e-01/1.000000e-01/1.000000e-01

 Standard Electronic Orientation quadrupole field applied
 Nucleus-field energy     =     0.0000000007 hartrees
 ENuRep (before)= 51.4402990596
 ENucField = 0.0000000007
 ENuRep (after) = 51.4402990603
 Guess from superposition of atomic densities
 Warning:  Energy on first SCF cycle will be non-variational
 SAD guess density has 26.000000 electrons

 ==================================================
    GEN_SCFMAN: A general SCF calculation manager  
                                                   
    Authors:                                       
        -- Eric Jon Sundstrom 2008-2014            
        -- Paul Horn 2010-2015                     
        -- Yuezhi Mao 2012-                        
        -- Dmitri Zuev 2014                        
        -- Alec White 2015-                        
        -- David Stuck 2015                        
        -- Shaama M.S. 2015                        
        -- Shane Yost 2015-                         
        -- Joonho Lee 2016-                        
        -- David Small 2016-                       
        -- Daniel Levine 2016-                     
        -- Susi Lehtola 2017-                      
        -- Hugh Burton 2017-                       
 ==================================================
 Hartree-Fock
Finding J and K together
 Job number = 22, Threshold = 1.00E-08
Integral type ranges set in mkLRange.C for JobNum: 22  <1-21|1-21>
 MakeJK  time:  CPU       0.70 s  wall       0.70 s
 HF Exchange:              -33.73996295699268
 One-Electron:             -788.64393259056465
 Total Coulomb:            271.56378915185684
 Nuclear repulsion:         51.44029906026643
 A restricted SCF calculation will be
 performed using DIIS
 SCF converges when DIIS error is below 1.0e-05
 ---------------------------------------
  Cycle       Energy         DIIS error
 ---------------------------------------
Finding J and K together
 Job number = 22, Threshold = 1.00E-08
Integral type ranges set in mkLRange.C for JobNum: 22  <1-21|1-21>
 MakeJK  time:  CPU       1.19 s  wall       1.19 s
 HF Exchange:              -33.76866797167100
 One-Electron:             -790.31687147683749
 Total Coulomb:            273.53535592809288
 Nuclear repulsion:         51.44029906026643
    1    -499.3798073354      5.84e-02  
Finding J and K together
 Job number = 22, Threshold = 1.00E-08
Integral type ranges set in mkLRange.C for JobNum: 22  <1-21|1-21>
 MakeJK  time:  CPU       1.19 s  wall       1.19 s
 HF Exchange:              -33.80326769110665
 One-Electron:             -790.27508226260204
 Total Coulomb:            273.50905325515032
 Nuclear repulsion:         51.44029906026643
    2    -499.1098844601      4.97e-03  
Finding J and K together
 Job number = 22, Threshold = 1.00E-08
Integral type ranges set in mkLRange.C for JobNum: 22  <1-21|1-21>
 MakeJK  time:  CPU       1.19 s  wall       1.19 s
 HF Exchange:              -33.80586581545310
 One-Electron:             -790.28272919797564
 Total Coulomb:            273.51605967933074
 Nuclear repulsion:         51.44029906026643
    3    -499.1289976383      2.26e-03  
Finding J and K together
 Job number = 22, Threshold = 1.00E-08
Integral type ranges set in mkLRange.C for JobNum: 22  <1-21|1-21>
 MakeJK  time:  CPU       1.20 s  wall       1.20 s
 HF Exchange:              -33.81156682089905
 One-Electron:             -790.29730992289922
 Total Coulomb:            273.53604862774068
 Nuclear repulsion:         51.44029906026643
    4    -499.1322362738      5.02e-04  
Finding J and K together
 Job number = 22, Threshold = 1.00E-08
Integral type ranges set in mkLRange.C for JobNum: 22  <1-21|1-21>
 MakeJK  time:  CPU       1.20 s  wall       1.25 s
 HF Exchange:              -33.81144171477123
 One-Electron:             -790.28772679960650
 Total Coulomb:            273.52632883062972
 Nuclear repulsion:         51.44029906026643
    5    -499.1325290558      8.14e-05  
Finding J and K together
 Job number = 22, Threshold = 1.00E-08
Integral type ranges set in mkLRange.C for JobNum: 22  <1-21|1-21>
 MakeJK  time:  CPU       1.18 s  wall       1.26 s
 HF Exchange:              -33.81166844432232
 One-Electron:             -790.28938509216903
 Total Coulomb:            273.52821301610857
 Nuclear repulsion:         51.44029906026643
    6    -499.1325406235      2.15e-05  
    7    -499.1325414601      6.20e-06  Convergence criterion met
 ---------------------------------------
 SCF time:   CPU 7.95s  wall 8.00s 
 Total energy in the final basis set =     -499.1325414601
 HF Exchange:              -33.81166844432232
 One-Electron:             -790.28938509216903
 Total Coulomb:            273.52821301610857
 Nuclear repulsion:         51.44029906026643
Wall  1 = 8
Clock 1 = 7.97699213027954
 ==================================================
                  Done GEN_SCFMAN                  
 ==================================================

Symmetry turned off temporarily

 --------------------------------------------------------------

                    Orbital Energies (a.u.)
 --------------------------------------------------------------

 Alpha MOs
 -- Occupied --
******* -11.292 -10.550  -8.019  -8.016  -8.016  -1.131  -0.918
 -0.621  -0.621  -0.548  -0.436  -0.436
 -- Virtual --
  0.038   0.071   0.071   0.087   0.140   0.153   0.153   0.157
  0.157   0.175   0.239   0.261   0.282   0.282   0.363   0.537
  0.537   0.551   0.622   0.622   0.683   0.832   0.832   0.863
  1.024   1.063   1.063   1.146   1.162   1.162   1.400   1.400
  1.418   1.684   1.784   1.784   1.983   1.983   1.986   2.254
  2.432   2.432   2.690   2.690   2.757   2.774   2.787   2.788
  2.878   2.878   3.202   3.621   4.122   4.122  10.423  25.022
 26.738  26.738  27.169 219.275
 --------------------------------------------------------------

          Ground-State Mulliken Net Atomic Charges

     Atom                 Charge (a.u.)
  ----------------------------------------
      1 C                    -0.524065
      2 Cl                    0.028350
      3 H                     0.165233
      4 H                     0.165245
      5 H                     0.165237
  ----------------------------------------
  Sum of atomic charges =     0.000000

 -----------------------------------------------------------------
                    Cartesian Multipole Moments
 -----------------------------------------------------------------
    Charge (ESU x 10^10)
                 0.0000
    Dipole Moment (Debye)
         X       2.2513      Y       0.0001      Z      -0.0000
       Tot       2.2513
    Quadrupole Moments (Debye-Ang)
        XX     -18.3534     XY      -0.0008     YY     -20.1197
        XZ       0.0006     YZ       0.0000     ZZ     -20.1205
    Octopole Moments (Debye-Ang^2)
       XXX      -1.2845    XXY      -0.0015    XYY       1.2543
       YYY       0.5453    XXZ       0.0012    XYZ       0.0001
       YYZ      -0.5699    XZZ       1.2539    YZZ      -0.5447
       ZZZ       0.5695
    Hexadecapole Moments (Debye-Ang^3)
      XXXX    -116.1392   XXXY      -0.0050   XXYY     -24.4042
      XYYY       0.8213   YYYY     -28.9940   XXXZ       0.0036
      XXYZ       0.0004   XYYZ      -0.8595   YYYZ      -0.0002
      XXZZ     -24.4027   XYZZ      -0.8222   YYZZ      -9.6647
      XZZZ       0.8602   YZZZ       0.0003   ZZZZ     -28.9934
 -----------------------------------------------------------------
 Mayer SCF Bond Order, atomic valence on the diagonal:

            1           2           3           4           5
    1   3.7840624   0.9006610   0.9611907   0.9610866   0.9611242
    2   0.9006610   0.8576480  -0.0143700  -0.0143142  -0.0143289
    3   0.9611907  -0.0143700   0.8985318  -0.0241473  -0.0241416
    4   0.9610866  -0.0143142  -0.0241473   0.8984764  -0.0241488
    5   0.9611242  -0.0143289  -0.0241416  -0.0241488   0.8985050


 JobOver = TRUE
Archival summary:
1\1\qciep03\SP\HF\BasisUnspecified\l113\jcartus\ThuFeb111:59:432018ThuFeb111:59:432018\0\\#,HF,BasisUnspecified,\\0,1\Cl\C,1,1.77994\H,2,1.08334,1,108.653\H,2,1.08337,1,108.639,3,120.004,0\H,2,1.08346,1,108.611,3,-119.995,0\\HF=-499.132541\\@

 Total job time:  8.43s(wall), 8.15s(cpu) 
 Thu Feb  1 11:59:43 2018

        *************************************************************
        *                                                           *
        *  Thank you very much for using Q-Chem.  Have a nice day.  *
        *                                                           *
        *************************************************************


*** MISSION COMPLETED -- STARFLEET OUT ***

0 sent ACK to 0 
now end server 0 ... 
