Process 0 of 1 is on qciep03 - thread support 0
initial socket setup ...start
initial socket setup ...done 
now start server 0 ... 
qciep03.tugraz.at 127.0.1
Q-Chem Developer Version! Running on 127.0.1.*
                  Welcome to Q-Chem
     A Quantum Leap Into The Future Of Chemistry


 Q-Chem 5.0, Q-Chem, Inc., Pleasanton, CA (2017)

 Yihan Shao,  Zhengting Gan,  E. Epifanovsky,  A. T. B. Gilbert,  M. Wormit,  
 J. Kussmann,  A. W. Lange,  A. Behn,  Jia Deng,  Xintian Feng,  D. Ghosh,  
 M. Goldey,  P. R. Horn,  L. D. Jacobson,  I. Kaliman,  T. Kus,  A. Landau,  
 Jie Liu,  E. I. Proynov,  R. M. Richard,  R. P. Steele,  E. J. Sundstrom,  
 H. L. Woodcock III,  P. M. Zimmerman,  D. Zuev,  B. Albrecht,  E. Alguire,  
 S. A. Baeppler,  D. Barton,  Z. Benda,  Y. A. Bernard,  E. J. Berquist,  
 K. B. Bravaya,  H. Burton,  D. Casanova,  Chun-Min Chang,  Yunqing Chen,  
 A. Chien,  K. D. Closser,  M. P. Coons,  S. Dasgupta,  A. L. Dempwolff,  
 M. Diedenhofen,  Hainam Do,  R. G. Edgar,  Po-Tung Fang,  S. Fatehi,  
 Qingguo Feng,  J. Fosso-Tande,  Qinghui Ge,  A. Ghysels,  G. Gidofalvi,  
 J. Gomes,  J. Gonthier,  A. Gunina,  M. W. D. Hanson-Heine,  
 P. H. P. Harbach,  A. W. Hauser,  J. E. Herr,  E. G. Hohenstein,  
 Z. C. Holden,  Kerwin Hui,  T.-C. Jagau,  Hyunjun Ji,  B. Kaduk,  
 K. Khistyaev,  Jaehoon Kim,  P. Klunzinger,  K. Koh,  D. Kosenkov,  
 L. Koulias,  T. Kowalczyk,  C. M. Krauter,  A. Kunitsa,  Ka Un Lao,  
 A. Laurent,  K. V. Lawler,  Joonho Lee,  D. Lefrancois,  S. Lehtola,  
 D. S. Levine,  Yi-Pei Li,  You-Sheng Lin,  Fenglai Liu,  E. Livshits,  
 A. Luenser,  P. Manohar,  E. Mansoor,  S. F. Manzer,  Shan-Ping Mao,  
 Yuezhi Mao,  N. Mardirossian,  A. V. Marenich,  T. Markovich,  
 L. A. Martinez-Martinez,  S. A. Maurer,  N. J. Mayhall,  S. C. McKenzie,  
 J.-M. Mewes,  A. F. Morrison,  J. W. Mullinax,  K. Nanda,  
 T. S. Nguyen-Beck,  R. Olivares-Amaya,  J. A. Parkhill,  T. M. Perrine,  
 F. Plasser,  S. Prager,  A. Prociuk,  E. Ramos,  D. R. Rehn,  F. Rob,  
 M. Schneider,  N. Sergueev,  S. M. Sharada,  S. Sharma,  D. W. Small,  
 T. Stauch,  T. Stein,  Yu-Chuan Su,  A. J. W. Thom,  A. Tkatchenko,  
 T. Tsuchimochi,  L. Vogt,  O. Vydrov,  M. A. Watson,  J. Wenzel,  
 M. de Wergifosse,  T. A. Wesolowski,  A. White,  J. Witte,  A. Yamada,  
 Jun Yang,  K. Yao,  S. Yeganeh,  S. R. Yost,  Zhi-Qiang You,  A. Zech,  
 Igor Ying Zhang,  Xing Zhang,  Yan Zhao,  Ying Zhu,  B. R. Brooks,  
 G. K. L. Chan,  C. J. Cramer,  M. S. Gordon,  W. J. Hehre,  A. Klamt,  
 M. W. Schmidt,  C. D. Sherrill,  D. G. Truhlar,  A. Aspuru-Guzik,  R. Baer,  
 A. T. Bell,  N. A. Besley,  Jeng-Da Chai,  R. A. DiStasio Jr.,  A. Dreuw,  
 B. D. Dunietz,  T. R. Furlani,  Chao-Ping Hsu,  Yousung Jung,  Jing Kong,  
 D. S. Lambrecht,  WanZhen Liang,  C. Ochsenfeld,  V. A. Rassolov,  
 L. V. Slipchenko,  J. E. Subotnik,  T. Van Voorhis,  J. M. Herbert,  
 A. I. Krylov,  P. M. W. Gill,  M. Head-Gordon

 Contributors to earlier versions of Q-Chem not listed above: 
 R. D. Adamson,  B. Austin,  J. Baker,  G. J. O. Beran,  K. Brandhorst,  
 S. T. Brown,  E. F. C. Byrd,  A. K. Chakraborty,  C.-L. Cheng,  
 Siu Hung Chien,  D. M. Chipman,  D. L. Crittenden,  H. Dachsel,  
 R. J. Doerksen,  A. D. Dutoi,  L. Fusti-Molnar,  W. A. Goddard III,  
 A. Golubeva-Zadorozhnaya,  S. R. Gwaltney,  G. Hawkins,  A. Heyden,  
 S. Hirata,  G. Kedziora,  F. J. Keil,  C. Kelley,  Jihan Kim,  R. A. King,  
 R. Z. Khaliullin,  P. P. Korambath,  W. Kurlancheek,  A. M. Lee,  M. S. Lee,  
 S. V. Levchenko,  Ching Yeh Lin,  D. Liotard,  R. C. Lochan,  I. Lotan,  
 P. E. Maslen,  N. Nair,  D. P. O'Neill,  D. Neuhauser,  E. Neuscamman,  
 C. M. Oana,  R. Olson,  B. Peters,  R. Peverati,  P. A. Pieniazek,  
 Y. M. Rhee,  J. Ritchie,  M. A. Rohrdanz,  E. Rosta,  N. J. Russ,  
 H. F. Schaefer III,  N. E. Schultz,  N. Shenvi,  A. C. Simmonett,  A. Sodt,  
 D. Stuck,  K. S. Thanthiriwatte,  V. Vanovschi,  Tao Wang,  A. Warshel,  
 C. F. Williams,  Q. Wu,  X. Xu,  W. Zhang

 Please cite Q-Chem as follows:
 Y. Shao et al., Mol. Phys. 113, 184-215 (2015)
 DOI: 10.1080/00268976.2014.952696

 Q-Chem 5.0.2 for Intel X86 EM64T Linux

 Parts of Q-Chem use Armadillo 5.200.1 (Boston Tea Smuggler).
 http://arma.sourceforge.net/

 Q-Chem begins on Thu Feb  1 12:04:32 2018  


Host: 0

     Scratch files written to /home/jcartus/scratch/19_benCl-acetone_mono1.dir//
 Using version located at /usr/local/qchem/bin/qchem

 Parallel job on  1  processors

Total Memory Limit in MB = 2000
Mega-Array Size in MB = 192

Checking the input file for inconsistencies... 	...done.
Finally everything over in PARseQInput

--------------------------------------------------------------
User input:
--------------------------------------------------------------
$rem
SCF_PRINT                     1
BASIS                         6-311++g**
SCF_SAVE_MATRICES             1
SCF_CONVERGENCE               5
SCF_FINAL_PRINT               1
METHOD                        hf
JOBTYPE                       sp
$end

$molecule
0 1
C    -0.45374374    0.000182739    1.059200327
C    0.583994572    -2.8402e-05    1.98824481
C    1.911123808    -0.00014276    1.563951774
C    2.200015462    -6.0948e-05    0.200857138
C    1.171852556    0.000151689    -0.738466754
H    -1.486276324    0.000268975    1.377240603
H    0.351319424    -0.000103142    3.044291019
H    2.712830438    -0.00029039    2.288837764
H    3.227238082    -0.000162856    -0.136887263
H    1.3832747    0.000214894    -1.797905634
C    -0.149841459    0.000281008    -0.299799844
Cl    -1.432288391    0.000559697    -1.466414983
$end


--------------------------------------------------------------
 ----------------------------------------------------------------
             Standard Nuclear Orientation (Angstroms)
    I     Atom           X                Y                Z
 ----------------------------------------------------------------
    1      C      -0.1756027246    -1.2129890056     0.0000085398
    2      C      -1.5684186031    -1.2035853620     0.0000011942
    3      C      -2.2660588116     0.0024804497    -0.0000100833
    4      C      -1.5639563866     1.2060325116     0.0000019488
    5      C      -0.1713233341     1.2106759752     0.0000075803
    6      H       0.3752850723    -2.1423951583     0.0000212016
    7      H      -2.1058064594    -2.1419805972     0.0000043380
    8      H      -3.3468869026     0.0044497550    -0.0000319275
    9      H      -2.0976703308     2.1464616836     0.0000075027
   10      H       0.3840829220     2.1373010115     0.0000189550
   11      C       0.5126323311    -0.0023814809     0.0000018456
   12      Cl      2.2463153454    -0.0003079543    -0.0000050718
 ----------------------------------------------------------------
 Molecular Point Group                 C1    NOp =  1
 Largest Abelian Subgroup              C1    NOp =  1
 Nuclear Repulsion Energy =   316.0791929865 hartrees
 There are       29 alpha and       29 beta electrons
 Requested basis set is 6-311++G(d,p)
 There are 74 shells and 197 basis functions

 Total QAlloc Memory Limit   2000 MB
 Mega-Array Size       188 MB
 MEM_STATIC part       192 MB

finished with qalloc call

                       Distance Matrix (Angstroms)
             C (  1)   C (  2)   C (  3)   C (  4)   C (  5)   H (  6)
   C (  2)  1.392848
   C (  3)  2.418134  1.393304
   C (  4)  2.789120  2.409622  1.393372
   C (  5)  2.423669  2.789361  2.418192  1.392641
   H (  6)  1.080404  2.158552  3.402527  3.869448  3.397332
   H (  7)  2.142128  1.081375  2.150440  3.391577  3.870727  2.481092
   H (  8)  3.396940  2.149953  1.080830  2.150033  3.396938  4.296918
   H (  9)  3.870433  3.391596  2.150584  1.081322  2.141613  4.950737
   H ( 10)  3.396718  3.869597  3.403044  2.159194  1.080329  4.279705
   C ( 11)  1.392565  2.402845  2.778695  2.402600  1.392589  2.144417
   Cl( 12)  2.708557  4.000009  4.512375  3.996677  2.703971  2.844168
             H (  7)   H (  8)   H (  9)   H ( 10)   C ( 11)
   H (  8)  2.479404
   H (  9)  4.288450  2.479669
   H ( 10)  4.950939  4.297580  2.481770
   C ( 11)  3.381436  3.859525  3.381007  2.143541
   Cl( 12)  4.850539  5.593204  4.845496  2.835010  1.733684

 Job number = 2, Threshold = 1.00E-08
Integral type ranges set in mkLRange.C for JobNum: 2  <1-21|1-21>
Symmetry turned off temporarily
 Using the largest function pair in Schwarz integrals
Total number of integrals generated =          285409
Symmetry turned back on
 A cutoff of  1.0D-08 yielded   2415 shell pairs
 There are     17922 function pairs (     19237 Cartesian)
 Job number = 11, Threshold = 1.00E-08
Integral type ranges set in mkLRange.C for JobNum: 11  <1-21|22-22>
Total number of integrals generated =          230820
 Smallest overlap matrix eigenvalue = 1.11E-06

 Q-Chem warning in module /usr/local/qchem/stvman/mkSTV.C, line 295:

 Overlap eigenvalue is smaller than square root of threshold

 Multipole matrices computed through 2nd order

 Scale SEOQF with 1.000000e-01/1.000000e-01/1.000000e-01

 Standard Electronic Orientation quadrupole field applied
 Nucleus-field energy     =     0.0000000098 hartrees
 ENuRep (before)= 316.0791929865
 ENucField = 0.0000000098
 ENuRep (after) = 316.0791929963
 Guess from superposition of atomic densities
 Warning:  Energy on first SCF cycle will be non-variational
 SAD guess density has 58.000000 electrons

 ==================================================
    GEN_SCFMAN: A general SCF calculation manager  
                                                   
    Authors:                                       
        -- Eric Jon Sundstrom 2008-2014            
        -- Paul Horn 2010-2015                     
        -- Yuezhi Mao 2012-                        
        -- Dmitri Zuev 2014                        
        -- Alec White 2015-                        
        -- David Stuck 2015                        
        -- Shaama M.S. 2015                        
        -- Shane Yost 2015-                         
        -- Joonho Lee 2016-                        
        -- David Small 2016-                       
        -- Daniel Levine 2016-                     
        -- Susi Lehtola 2017-                      
        -- Hugh Burton 2017-                       
 ==================================================
 Hartree-Fock
Finding J and K together
 Job number = 22, Threshold = 1.00E-08
Integral type ranges set in mkLRange.C for JobNum: 22  <1-21|1-21>
 MakeJK  time:  CPU       7.00 s  wall       8.60 s
 HF Exchange:              -61.45932777189343
 One-Electron:             -1568.42503037729693
 Total Coulomb:            621.34099795768293
 Nuclear repulsion:        316.07919299632766
 A restricted SCF calculation will be
 performed using DIIS
 SCF converges when DIIS error is below 1.0e-05
 ---------------------------------------
  Cycle       Energy         DIIS error
 ---------------------------------------
Finding J and K together
 Job number = 22, Threshold = 1.00E-08
Integral type ranges set in mkLRange.C for JobNum: 22  <1-21|1-21>
 MakeJK  time:  CPU      25.08 s  wall      25.61 s
 HF Exchange:              -60.35064440199380
 One-Electron:             -1571.89037063233218
 Total Coulomb:            626.56346263322052
 Nuclear repulsion:        316.07919299632766
    1    -692.4641671952      4.74e-02  
Finding J and K together
 Job number = 22, Threshold = 1.00E-08
Integral type ranges set in mkLRange.C for JobNum: 22  <1-21|1-21>
 MakeJK  time:  CPU      25.52 s  wall      27.05 s
 HF Exchange:              -60.44825414302601
 One-Electron:             -1572.80011462765060
 Total Coulomb:            627.50195790994712
 Nuclear repulsion:        316.07919299632766
    2    -689.5983594048      3.36e-03  
Finding J and K together
 Job number = 22, Threshold = 1.00E-08
Integral type ranges set in mkLRange.C for JobNum: 22  <1-21|1-21>
 MakeJK  time:  CPU      23.23 s  wall      24.71 s
 HF Exchange:              -60.46171537851720
 One-Electron:             -1572.28691828872525
 Total Coulomb:            626.99214598078879
 Nuclear repulsion:        316.07919299632766
    3    -689.6672178644      1.50e-03  
Finding J and K together
 Job number = 22, Threshold = 1.00E-08
Integral type ranges set in mkLRange.C for JobNum: 22  <1-21|1-21>
 MakeJK  time:  CPU      25.40 s  wall      25.51 s
 HF Exchange:              -60.47270508288561
 One-Electron:             -1572.51891958600368
 Total Coulomb:            627.23252564895324
 Nuclear repulsion:        316.07919299632766
    4    -689.6772946901      6.48e-04  
Finding J and K together
 Job number = 22, Threshold = 1.00E-08
Integral type ranges set in mkLRange.C for JobNum: 22  <1-21|1-21>
 MakeJK  time:  CPU      25.13 s  wall      25.20 s
 HF Exchange:              -60.47202749916141
 One-Electron:             -1572.47733953376769
 Total Coulomb:            627.19017790125952
 Nuclear repulsion:        316.07919299632766
    5    -689.6799060236      1.15e-04  
Finding J and K together
 Job number = 22, Threshold = 1.00E-08
Integral type ranges set in mkLRange.C for JobNum: 22  <1-21|1-21>
 MakeJK  time:  CPU      25.77 s  wall      25.96 s
 HF Exchange:              -60.47228287294367
 One-Electron:             -1572.47741572807968
 Total Coulomb:            627.19049554849119
 Nuclear repulsion:        316.07919299632766
    6    -689.6799961353      3.60e-05  
Finding J and K together
 Job number = 22, Threshold = 1.00E-08
Integral type ranges set in mkLRange.C for JobNum: 22  <1-21|1-21>
 MakeJK  time:  CPU      25.87 s  wall      27.07 s
 HF Exchange:              -60.47243167731899
 One-Electron:             -1572.47938848282479
 Total Coulomb:            627.19261468651700
 Nuclear repulsion:        316.07919299632766
    7    -689.6800100562      1.28e-05  
    8    -689.6800124773      5.29e-06  Convergence criterion met
 ---------------------------------------
 SCF time:   CPU 184.70s  wall 191.00s 
 Total energy in the final basis set =     -689.6800124773
 HF Exchange:              -60.47243167731899
 One-Electron:             -1572.47938848282479
 Total Coulomb:            627.19261468651700
 Nuclear repulsion:        316.07919299632766
Wall  1 = 192
Clock 1 = 184.92054748535156
 ==================================================
                  Done GEN_SCFMAN                  
 ==================================================

Symmetry turned off temporarily

 --------------------------------------------------------------

                    Orbital Energies (a.u.)
 --------------------------------------------------------------

 Alpha MOs
 -- Occupied --
******* -11.308 -11.254 -11.254 -11.253 -11.253 -11.249 -10.566
 -8.035  -8.032  -8.031  -1.195  -1.124  -1.035  -1.000  -0.850
 -0.823  -0.715  -0.651  -0.651  -0.607  -0.593  -0.546  -0.520
 -0.515  -0.471  -0.456  -0.353  -0.338
 -- Virtual --
  0.038   0.047   0.053   0.068   0.073   0.094   0.097   0.104
  0.122   0.127   0.142   0.146   0.147   0.169   0.173   0.178
  0.185   0.187   0.187   0.199   0.204   0.208   0.210   0.211
  0.219   0.222   0.237   0.241   0.247   0.280   0.281   0.294
  0.295   0.321   0.325   0.344   0.350   0.359   0.400   0.408
  0.419   0.428   0.477   0.481   0.489   0.491   0.592   0.609
  0.617   0.630   0.646   0.709   0.718   0.718   0.732   0.736
  0.744   0.762   0.789   0.799   0.805   0.809   0.875   0.887
  0.925   0.935   0.946   0.976   0.990   1.017   1.024   1.040
  1.055   1.065   1.087   1.101   1.111   1.132   1.139   1.183
  1.205   1.207   1.224   1.234   1.273   1.309   1.351   1.376
  1.420   1.461   1.521   1.576   1.642   1.724   1.779   1.782
  1.821   1.828   1.840   1.891   1.906   1.906   1.957   2.000
  2.007   2.042   2.100   2.166   2.214   2.217   2.219   2.233
  2.237   2.285   2.319   2.348   2.367   2.382   2.572   2.606
  2.645   2.658   2.737   2.771   2.783   2.798   2.871   2.918
  2.955   2.976   3.000   3.006   3.033   3.041   3.044   3.083
  3.177   3.178   3.198   3.202   3.275   3.279   3.312   3.468
  3.561   3.626   3.756   3.782   3.898   3.911   4.024   4.204
  4.397   4.459   4.546   4.557   5.261  10.497  24.684  25.066
 25.123  25.219  25.249  25.344  26.704  27.020  27.528 219.358
 --------------------------------------------------------------

          Ground-State Mulliken Net Atomic Charges

     Atom                 Charge (a.u.)
  ----------------------------------------
      1 C                    -0.339580
      2 C                    -0.451002
      3 C                    -0.210861
      4 C                    -0.455922
      5 C                    -0.341928
      6 H                     0.212430
      7 H                     0.211637
      8 H                     0.195215
      9 H                     0.211569
     10 H                     0.212800
     11 C                     0.536113
     12 Cl                    0.219529
  ----------------------------------------
  Sum of atomic charges =     0.000000

 -----------------------------------------------------------------
                    Cartesian Multipole Moments
 -----------------------------------------------------------------
    Charge (ESU x 10^10)
                 0.0000
    Dipole Moment (Debye)
         X      -1.9751      Y       0.0007      Z       0.0000
       Tot       1.9751
    Quadrupole Moments (Debye-Ang)
        XX     -46.6744     XY       0.0136     YY     -42.4562
        XZ       0.0001     YZ       0.0000     ZZ     -52.7837
    Octopole Moments (Debye-Ang^2)
       XXX      -6.2221    XXY       0.0232    XYY      -1.4438
       YYY      -0.0105    XXZ      -0.0003    XYZ      -0.0000
       YYZ       0.0002    XZZ       7.6088    YZZ       0.0008
       ZZZ      -0.0000
    Hexadecapole Moments (Debye-Ang^3)
      XXXX    -787.9598   XXXY       0.1114   XXYY    -181.2184
      XYYY       0.0326   YYYY    -274.7657   XXXZ       0.0009
      XXYZ       0.0000   XYYZ      -0.0001   YYYZ       0.0000
      XXZZ    -165.9818   XYZZ       0.0014   YYZZ     -69.4393
      XZZZ      -0.0000   YZZZ       0.0000   ZZZZ     -63.9093
 -----------------------------------------------------------------
 Mayer SCF Bond Order, atomic valence on the diagonal:

            1           2           3           4           5           6
    1   4.8389880   1.8619827  -0.1545660   0.0129010   0.1519678   0.8001668
    2   1.8619827   4.7930428   1.8439134   0.0339753   0.0155651   0.0651708
    3  -0.1545660   1.8439134   4.3558634   1.8426693  -0.1554759  -0.0148821
    4   0.0129010   0.0339753   1.8426693   4.7977125   1.8669598  -0.0000632
    5   0.1519678   0.0155651  -0.1554759   1.8669598   4.8490343   0.0107096
    6   0.8001668   0.0651708  -0.0148821  -0.0000632   0.0107096   0.9272978
    7   0.0880903   0.7538678   0.1070334  -0.0323835   0.0087416   0.0076278
    8  -0.0314070   0.0829617   0.8048072   0.0829953  -0.0313212   0.0007625
    9   0.0085917  -0.0323246   0.1069391   0.7537684   0.0884836   0.0001294
   10   0.0110731  -0.0001721  -0.0146155   0.0653008   0.8012070   0.0020055
   11   1.5063483   0.0858666  -0.0483421   0.0895396   1.5052646   0.0447882
   12   0.5838393   0.0822362   0.0383828   0.0820496   0.5869325   0.0108824
            7           8           9          10          11          12
    1   0.0880903  -0.0314070   0.0085917   0.0110731   1.5063483   0.5838393
    2   0.7538678   0.0829617  -0.0323246  -0.0001721   0.0858666   0.0822362
    3   0.1070334   0.8048072   0.1069391  -0.0146155  -0.0483421   0.0383828
    4  -0.0323835   0.0829953   0.7537684   0.0653008   0.0895396   0.0820496
    5   0.0087416  -0.0313212   0.0884836   0.8012070   1.5052646   0.5869325
    6   0.0076278   0.0007625   0.0001294   0.0020055   0.0447882   0.0108824
    7   0.9315267   0.0091541   0.0004114   0.0001350  -0.0111443  -0.0000070
    8   0.0091541   0.9460070   0.0091423   0.0007644   0.0195830  -0.0014353
    9   0.0004114   0.0091423   0.9315621   0.0076328  -0.0112180   0.0000059
   10   0.0001350   0.0007644   0.0076328   0.9265372   0.0428421   0.0103640
   11  -0.0111443   0.0195830  -0.0112180   0.0428421   2.4916993  -0.7318286
   12  -0.0000070  -0.0014353   0.0000059   0.0103640  -0.7318286   0.6614219


 JobOver = TRUE
Archival summary:
1\1\qciep03\SP\HF\BasisUnspecified\l165\jcartus\ThuFeb112:07:452018ThuFeb112:07:452018\0\\#,HF,BasisUnspecified,\\0,1\Cl\C,1,1.73368\C,2,1.39257,1,119.687\H,3,1.0804,2,119.725,1,0,0\C,2,1.39259,1,119.347,3,180,0\H,5,1.08033,2,119.647,1,-0,0\C,5,1.39264,2,119.224,1,180,0\H,7,1.08132,5,119.385,2,180,0\C,3,1.39285,2,119.232,1,-180,0\H,9,1.08137,3,119.412,2,180,0\C,9,1.3933,3,120.434,2,-0,0\H,11,1.08083,9,120.151,3,179.999,0\\HF=-689.680012\\@

 Total job time:  192.64s(wall), 185.70s(cpu) 
 Thu Feb  1 12:07:45 2018

        *************************************************************
        *                                                           *
        *  Thank you very much for using Q-Chem.  Have a nice day.  *
        *                                                           *
        *************************************************************


*** MISSION COMPLETED -- STARFLEET OUT ***

0 sent ACK to 0 
now end server 0 ... 
