Process 0 of 1 is on qciep03 - thread support 0
initial socket setup ...start
initial socket setup ...done 
now start server 0 ... 
qciep03.tugraz.at 127.0.1
Q-Chem Developer Version! Running on 127.0.1.*
                  Welcome to Q-Chem
     A Quantum Leap Into The Future Of Chemistry


 Q-Chem 5.0, Q-Chem, Inc., Pleasanton, CA (2017)

 Yihan Shao,  Zhengting Gan,  E. Epifanovsky,  A. T. B. Gilbert,  M. Wormit,  
 J. Kussmann,  A. W. Lange,  A. Behn,  Jia Deng,  Xintian Feng,  D. Ghosh,  
 M. Goldey,  P. R. Horn,  L. D. Jacobson,  I. Kaliman,  T. Kus,  A. Landau,  
 Jie Liu,  E. I. Proynov,  R. M. Richard,  R. P. Steele,  E. J. Sundstrom,  
 H. L. Woodcock III,  P. M. Zimmerman,  D. Zuev,  B. Albrecht,  E. Alguire,  
 S. A. Baeppler,  D. Barton,  Z. Benda,  Y. A. Bernard,  E. J. Berquist,  
 K. B. Bravaya,  H. Burton,  D. Casanova,  Chun-Min Chang,  Yunqing Chen,  
 A. Chien,  K. D. Closser,  M. P. Coons,  S. Dasgupta,  A. L. Dempwolff,  
 M. Diedenhofen,  Hainam Do,  R. G. Edgar,  Po-Tung Fang,  S. Fatehi,  
 Qingguo Feng,  J. Fosso-Tande,  Qinghui Ge,  A. Ghysels,  G. Gidofalvi,  
 J. Gomes,  J. Gonthier,  A. Gunina,  M. W. D. Hanson-Heine,  
 P. H. P. Harbach,  A. W. Hauser,  J. E. Herr,  E. G. Hohenstein,  
 Z. C. Holden,  Kerwin Hui,  T.-C. Jagau,  Hyunjun Ji,  B. Kaduk,  
 K. Khistyaev,  Jaehoon Kim,  P. Klunzinger,  K. Koh,  D. Kosenkov,  
 L. Koulias,  T. Kowalczyk,  C. M. Krauter,  A. Kunitsa,  Ka Un Lao,  
 A. Laurent,  K. V. Lawler,  Joonho Lee,  D. Lefrancois,  S. Lehtola,  
 D. S. Levine,  Yi-Pei Li,  You-Sheng Lin,  Fenglai Liu,  E. Livshits,  
 A. Luenser,  P. Manohar,  E. Mansoor,  S. F. Manzer,  Shan-Ping Mao,  
 Yuezhi Mao,  N. Mardirossian,  A. V. Marenich,  T. Markovich,  
 L. A. Martinez-Martinez,  S. A. Maurer,  N. J. Mayhall,  S. C. McKenzie,  
 J.-M. Mewes,  A. F. Morrison,  J. W. Mullinax,  K. Nanda,  
 T. S. Nguyen-Beck,  R. Olivares-Amaya,  J. A. Parkhill,  T. M. Perrine,  
 F. Plasser,  S. Prager,  A. Prociuk,  E. Ramos,  D. R. Rehn,  F. Rob,  
 M. Schneider,  N. Sergueev,  S. M. Sharada,  S. Sharma,  D. W. Small,  
 T. Stauch,  T. Stein,  Yu-Chuan Su,  A. J. W. Thom,  A. Tkatchenko,  
 T. Tsuchimochi,  L. Vogt,  O. Vydrov,  M. A. Watson,  J. Wenzel,  
 M. de Wergifosse,  T. A. Wesolowski,  A. White,  J. Witte,  A. Yamada,  
 Jun Yang,  K. Yao,  S. Yeganeh,  S. R. Yost,  Zhi-Qiang You,  A. Zech,  
 Igor Ying Zhang,  Xing Zhang,  Yan Zhao,  Ying Zhu,  B. R. Brooks,  
 G. K. L. Chan,  C. J. Cramer,  M. S. Gordon,  W. J. Hehre,  A. Klamt,  
 M. W. Schmidt,  C. D. Sherrill,  D. G. Truhlar,  A. Aspuru-Guzik,  R. Baer,  
 A. T. Bell,  N. A. Besley,  Jeng-Da Chai,  R. A. DiStasio Jr.,  A. Dreuw,  
 B. D. Dunietz,  T. R. Furlani,  Chao-Ping Hsu,  Yousung Jung,  Jing Kong,  
 D. S. Lambrecht,  WanZhen Liang,  C. Ochsenfeld,  V. A. Rassolov,  
 L. V. Slipchenko,  J. E. Subotnik,  T. Van Voorhis,  J. M. Herbert,  
 A. I. Krylov,  P. M. W. Gill,  M. Head-Gordon

 Contributors to earlier versions of Q-Chem not listed above: 
 R. D. Adamson,  B. Austin,  J. Baker,  G. J. O. Beran,  K. Brandhorst,  
 S. T. Brown,  E. F. C. Byrd,  A. K. Chakraborty,  C.-L. Cheng,  
 Siu Hung Chien,  D. M. Chipman,  D. L. Crittenden,  H. Dachsel,  
 R. J. Doerksen,  A. D. Dutoi,  L. Fusti-Molnar,  W. A. Goddard III,  
 A. Golubeva-Zadorozhnaya,  S. R. Gwaltney,  G. Hawkins,  A. Heyden,  
 S. Hirata,  G. Kedziora,  F. J. Keil,  C. Kelley,  Jihan Kim,  R. A. King,  
 R. Z. Khaliullin,  P. P. Korambath,  W. Kurlancheek,  A. M. Lee,  M. S. Lee,  
 S. V. Levchenko,  Ching Yeh Lin,  D. Liotard,  R. C. Lochan,  I. Lotan,  
 P. E. Maslen,  N. Nair,  D. P. O'Neill,  D. Neuhauser,  E. Neuscamman,  
 C. M. Oana,  R. Olson,  B. Peters,  R. Peverati,  P. A. Pieniazek,  
 Y. M. Rhee,  J. Ritchie,  M. A. Rohrdanz,  E. Rosta,  N. J. Russ,  
 H. F. Schaefer III,  N. E. Schultz,  N. Shenvi,  A. C. Simmonett,  A. Sodt,  
 D. Stuck,  K. S. Thanthiriwatte,  V. Vanovschi,  Tao Wang,  A. Warshel,  
 C. F. Williams,  Q. Wu,  X. Xu,  W. Zhang

 Please cite Q-Chem as follows:
 Y. Shao et al., Mol. Phys. 113, 184-215 (2015)
 DOI: 10.1080/00268976.2014.952696

 Q-Chem 5.0.2 for Intel X86 EM64T Linux

 Parts of Q-Chem use Armadillo 5.200.1 (Boston Tea Smuggler).
 http://arma.sourceforge.net/

 Q-Chem begins on Thu Jan 25 17:45:57 2018  


Host: 0

     Scratch files written to /home/jcartus/scratch/Phenol-dimer_mono1.dir//
 Using version located at /usr/local/qchem/bin/qchem

 Parallel job on  1  processors

Total Memory Limit in MB = 2000
Mega-Array Size in MB = 192

Checking the input file for inconsistencies... 	...done.
Finally everything over in PARseQInput

--------------------------------------------------------------
User input:
--------------------------------------------------------------
$rem
SCF_PRINT                     1
BASIS                         6-311++g**
SCF_SAVE_MATRICES             1
SCF_CONVERGENCE               5
SCF_FINAL_PRINT               1
METHOD                        hf
JOBTYPE                       sp
$end

$molecule
0 1
O    1.3531168    1.9382724    0.4723133
C    2.0369747    0.7865043    0.1495491
H    1.7842846    2.3487495    1.229711
C    1.5904026    0.069686    -0.9574153
C    2.2417367    -1.1069765    -1.312811
C    3.3315674    -1.5665603    -0.5748636
C    3.7696838    -0.8396901    0.5286439
C    3.1224836    0.3383498    0.8960491
H    0.7445512    0.4367983    -1.5218583
H    1.8921463    -1.6649726    -2.1701843
H    3.8330227    -2.4811537    -0.8566666
H    4.6137632    -1.1850101    1.1092635
H    3.4598854    0.9030376    1.7569489
$end


--------------------------------------------------------------
 ----------------------------------------------------------------
             Standard Nuclear Orientation (Angstroms)
    I     Atom           X                Y                Z
 ----------------------------------------------------------------
    1      O       2.3058214749    -0.1109505809    -0.0071141863
    2      C       0.9306061256    -0.0267630341     0.0030500899
    3      H       2.6678282515     0.7810926695     0.0283587664
    4      C       0.2192515632    -1.2236756414     0.0034923267
    5      C      -1.1713452691    -1.1875746084    -0.0002516926
    6      C      -1.8504773518     0.0299200095    -0.0012805563
    7      C      -1.1277302048     1.2197304998     0.0003408599
    8      C       0.2654847141     1.1955463401     0.0002969768
    9      H       0.7574693742    -2.1613065217     0.0048533147
   10      H      -1.7230003366    -2.1172665576    -0.0036629950
   11      H      -2.9307155049     0.0506599992    -0.0038923496
   12      H      -1.6422025006     2.1706000908    -0.0002367041
   13      H       0.8293114543     2.1207235741    -0.0023945686
 ----------------------------------------------------------------
 Molecular Point Group                 C1    NOp =  1
 Largest Abelian Subgroup              C1    NOp =  1
 Nuclear Repulsion Energy =   271.3461788274 hartrees
 There are       25 alpha and       25 beta electrons
 Requested basis set is 6-311++G(d,p)
 There are 72 shells and 196 basis functions

 Total QAlloc Memory Limit   2000 MB
 Mega-Array Size       188 MB
 MEM_STATIC part       192 MB

finished with qalloc call

                       Distance Matrix (Angstroms)
             O (  1)   C (  2)   H (  3)   C (  4)   C (  5)   C (  6)
   C (  2)  1.377827
   H (  3)  0.963353  1.916041
   C (  4)  2.364750  1.392345  3.164687
   C (  5)  3.640035  2.401186  4.314594  1.391070
   C (  6)  4.158690  2.781664  4.580417  2.419773  1.394100
   C (  7)  3.682397  2.406346  3.820923  2.790090  2.407700  1.392126
   C (  8)  2.422801  1.391558  2.437994  2.419666  2.782759  2.415778
   H (  9)  2.569338  2.141554  3.508238  1.081125  2.160673  3.406303
   H ( 10)  4.500747  3.378147  5.261263  2.137966  1.081047  2.150969
   H ( 11)  5.239031  3.862104  5.646084  3.397982  2.151423  1.080440
   H ( 12)  4.559870  3.383454  4.528566  3.871193  3.391024  2.150788
   H ( 13)  2.675906  2.149881  2.275017  3.399590  3.866196  3.398931
             C (  7)   C (  8)   H (  9)   H ( 10)   H ( 11)   H ( 12)
   C (  8)  1.393425
   H (  9)  3.871099  3.392717
   H ( 10)  3.389677  3.863783  2.480875
   H ( 11)  2.148837  3.395067  4.300649  2.481629
   H ( 12)  1.081127  2.142429  4.952158  4.288629  2.480811
   H ( 13)  2.154486  1.083449  4.282639  4.947207  4.292199  2.472018


 Job number = 2, Threshold = 1.00E-08
Integral type ranges set in mkLRange.C for JobNum: 2  <1-21|1-21>
Symmetry turned off temporarily
 Using the largest function pair in Schwarz integrals
Total number of integrals generated =          294567
Symmetry turned back on
 A cutoff of  1.0D-08 yielded   2360 shell pairs
 There are     17997 function pairs (     19317 Cartesian)
 Job number = 11, Threshold = 1.00E-08
Integral type ranges set in mkLRange.C for JobNum: 11  <1-21|22-22>
Total number of integrals generated =          251121
 Smallest overlap matrix eigenvalue = 1.13E-06

 Q-Chem warning in module /usr/local/qchem/stvman/mkSTV.C, line 295:

 Overlap eigenvalue is smaller than square root of threshold

 Multipole matrices computed through 2nd order

 Scale SEOQF with 1.000000e-01/1.000000e-01/1.000000e-01

 Standard Electronic Orientation quadrupole field applied
 Nucleus-field energy     =     0.0000000077 hartrees
 ENuRep (before)= 271.3461788274
 ENucField = 0.0000000077
 ENuRep (after) = 271.3461788351
 Guess from superposition of atomic densities
 Warning:  Energy on first SCF cycle will be non-variational
 SAD guess density has 50.000000 electrons

 ==================================================
    GEN_SCFMAN: A general SCF calculation manager  
                                                   
    Authors:                                       
        -- Eric Jon Sundstrom 2008-2014            
        -- Paul Horn 2010-2015                     
        -- Yuezhi Mao 2012-                        
        -- Dmitri Zuev 2014                        
        -- Alec White 2015-                        
        -- David Stuck 2015                        
        -- Shaama M.S. 2015                        
        -- Shane Yost 2015-                         
        -- Joonho Lee 2016-                        
        -- David Small 2016-                       
        -- Daniel Levine 2016-                     
        -- Susi Lehtola 2017-                      
        -- Hugh Burton 2017-                       
 ==================================================
 Hartree-Fock
Finding J and K together
 Job number = 22, Threshold = 1.00E-08
Integral type ranges set in mkLRange.C for JobNum: 22  <1-21|1-21>
 MakeJK  time:  CPU       5.65 s  wall       5.89 s
 HF Exchange:              -42.39324841863019
 One-Electron:             -947.43216989023688
 Total Coulomb:            410.06642998485796
 Nuclear repulsion:        271.34617883507110
 A restricted SCF calculation will be
 performed using DIIS
 SCF converges when DIIS error is below 1.0e-05
 ---------------------------------------
  Cycle       Energy         DIIS error
 ---------------------------------------
Finding J and K together
 Job number = 22, Threshold = 1.00E-08
Integral type ranges set in mkLRange.C for JobNum: 22  <1-21|1-21>
 MakeJK  time:  CPU      22.85 s  wall      23.08 s
 HF Exchange:              -41.46510214356746
 One-Electron:             -952.37037055013320
 Total Coulomb:            416.94214541918967
 Nuclear repulsion:        271.34617883507110
    1    -308.4128094889      4.97e-02  
Finding J and K together
 Job number = 22, Threshold = 1.00E-08
Integral type ranges set in mkLRange.C for JobNum: 22  <1-21|1-21>
 MakeJK  time:  CPU      23.31 s  wall      23.64 s
 HF Exchange:              -41.43489351420116
 One-Electron:             -951.63972323064206
 Total Coulomb:            416.10146067619996
 Nuclear repulsion:        271.34617883507110
    2    -305.5471484394      3.89e-03  
Finding J and K together
 Job number = 22, Threshold = 1.00E-08
Integral type ranges set in mkLRange.C for JobNum: 22  <1-21|1-21>
 MakeJK  time:  CPU      16.45 s  wall      16.61 s
 HF Exchange:              -41.52523747192433
 One-Electron:             -952.08162488247149
 Total Coulomb:            416.62421633763296
 Nuclear repulsion:        271.34617883507110
    3    -305.6269772336      1.55e-03  
Finding J and K together
 Job number = 22, Threshold = 1.00E-08
Integral type ranges set in mkLRange.C for JobNum: 22  <1-21|1-21>
 MakeJK  time:  CPU      20.52 s  wall      20.97 s
 HF Exchange:              -41.51538471304339
 One-Electron:             -952.03257924653474
 Total Coulomb:            416.56353345650876
 Nuclear repulsion:        271.34617883507110
    4    -305.6364671817      6.00e-04  
Finding J and K together
 Job number = 22, Threshold = 1.00E-08
Integral type ranges set in mkLRange.C for JobNum: 22  <1-21|1-21>
 MakeJK  time:  CPU      23.23 s  wall      23.49 s
 HF Exchange:              -41.51514919372904
 One-Electron:             -951.98526423846965
 Total Coulomb:            416.51591140862189
 Nuclear repulsion:        271.34617883507110
    5    -305.6382516680      1.11e-04  
Finding J and K together
 Job number = 22, Threshold = 1.00E-08
Integral type ranges set in mkLRange.C for JobNum: 22  <1-21|1-21>
 MakeJK  time:  CPU      22.79 s  wall      22.89 s
 HF Exchange:              -41.51632353297521
 One-Electron:             -952.00031476282174
 Total Coulomb:            416.53212856027557
 Nuclear repulsion:        271.34617883507110
    6    -305.6383231885      2.91e-05  
Finding J and K together
 Job number = 22, Threshold = 1.00E-08
Integral type ranges set in mkLRange.C for JobNum: 22  <1-21|1-21>
 MakeJK  time:  CPU      23.19 s  wall      23.38 s
 HF Exchange:              -41.51618099322804
 One-Electron:             -951.99802041849568
 Total Coulomb:            416.52969036332996
 Nuclear repulsion:        271.34617883507110
    7    -305.6383309005      1.08e-05  
    8    -305.6383322133      3.75e-06  Convergence criterion met
 ---------------------------------------
 SCF time:   CPU 159.61s  wall 161.00s 
 Total energy in the final basis set =     -305.6383322133
 HF Exchange:              -41.51618099322804
 One-Electron:             -951.99802041849568
 Total Coulomb:            416.52969036332996
 Nuclear repulsion:        271.34617883507110
Wall  1 = 162
Clock 1 = 159.82902526855469
 ==================================================
                  Done GEN_SCFMAN                  
 ==================================================

Symmetry turned off temporarily

 --------------------------------------------------------------

                    Orbital Energies (a.u.)
 --------------------------------------------------------------

 Alpha MOs
 -- Occupied --
-20.591 -11.308 -11.247 -11.244 -11.239 -11.233 -11.232  -1.405
 -1.153  -1.026  -1.010  -0.851  -0.827  -0.736  -0.689  -0.655
 -0.614  -0.597  -0.589  -0.571  -0.520  -0.500  -0.486  -0.346
 -0.319
 -- Virtual --
  0.038   0.046   0.051   0.065   0.071   0.090   0.104   0.118
  0.133   0.133   0.150   0.156   0.157   0.171   0.178   0.181
  0.182   0.194   0.205   0.206   0.209   0.212   0.214   0.215
  0.227   0.238   0.243   0.255   0.286   0.290   0.298   0.319
  0.331   0.332   0.334   0.383   0.385   0.405   0.411   0.431
  0.434   0.449   0.458   0.479   0.502   0.523   0.540   0.563
  0.642   0.655   0.708   0.721   0.724   0.742   0.752   0.753
  0.757   0.761   0.800   0.814   0.815   0.819   0.885   0.916
  0.943   0.948   0.967   0.985   1.000   1.034   1.045   1.068
  1.074   1.113   1.119   1.133   1.139   1.198   1.216   1.224
  1.237   1.315   1.318   1.356   1.373   1.379   1.467   1.480
  1.507   1.594   1.656   1.725   1.770   1.790   1.831   1.832
  1.838   1.859   1.882   1.913   1.925   1.960   2.013   2.014
  2.051   2.084   2.109   2.190   2.222   2.225   2.230   2.247
  2.258   2.271   2.327   2.332   2.375   2.386   2.414   2.584
  2.650   2.653   2.752   2.785   2.789   2.842   2.906   2.964
  2.981   3.011   3.023   3.033   3.039   3.046   3.075   3.141
  3.178   3.184   3.210   3.272   3.287   3.319   3.475   3.486
  3.497   3.567   3.572   3.754   3.790   3.848   3.912   3.924
  4.027   4.081   4.314   4.410   4.455   4.555   4.573   4.595
  5.277   5.554   6.008   6.312  24.739  25.096  25.137  25.244
 25.265  25.366  51.640
 --------------------------------------------------------------

          Ground-State Mulliken Net Atomic Charges

     Atom                 Charge (a.u.)
  ----------------------------------------
      1 O                    -0.298567
      2 C                    -0.719788
      3 H                     0.263538
      4 C                     0.304593
      5 C                    -0.357166
      6 C                    -0.247022
      7 C                    -0.336500
      8 C                     0.371914
      9 H                     0.242288
     10 H                     0.203507
     11 H                     0.188455
     12 H                     0.203287
     13 H                     0.181462
  ----------------------------------------
  Sum of atomic charges =     0.000000

 -----------------------------------------------------------------
                    Cartesian Multipole Moments
 -----------------------------------------------------------------
    Charge (ESU x 10^10)
                 0.0000
    Dipole Moment (Debye)
         X      -0.4220      Y       1.4518      Z       0.0570
       Tot       1.5129
    Quadrupole Moments (Debye-Ang)
        XX     -38.7384     XY       4.7642     YY     -35.3675
        XZ       0.2139     YZ       0.0521     ZZ     -46.3653
    Octopole Moments (Debye-Ang^2)
       XXX       4.8789    XXY      13.7034    XYY       4.7744
       YYY       0.3446    XXZ       0.5068    XYZ       0.1288
       YYZ      -0.0086    XZZ       6.3542    YZZ      -0.0092
       ZZZ      -0.0323
    Hexadecapole Moments (Debye-Ang^3)
      XXXX    -491.8495   XXXY      40.0278   XXYY    -117.8861
      XYYY       3.3450   YYYY    -271.3479   XXXZ       1.6453
      XXYZ       0.4421   XYYZ       0.1410   YYYZ       0.0336
      XXZZ    -107.1385   XYZZ       0.7541   YYZZ     -67.3737
      XZZZ       0.0580   YZZZ       0.0423   ZZZZ     -54.8570
 -----------------------------------------------------------------
 Mayer SCF Bond Order, atomic valence on the diagonal:

            1           2           3           4           5           6
    1   1.6792308   1.6423299   0.9256311  -0.6756402   0.0737819   0.0080161
    2   1.6423299   4.7369949   0.1036429   1.5437368   0.1974778  -0.0802975
    3   0.9256311   0.1036429   0.9671057   0.0318994  -0.0011447  -0.0049230
    4  -0.6756402   1.5437368   0.0318994   3.5996761   1.7760675  -0.0864181
    5   0.0737819   0.1974778  -0.0011447   1.7760675   4.6712614   1.8251449
    6   0.0080161  -0.0802975  -0.0049230  -0.0864181   1.8251449   4.3618892
    7   0.0170004   0.1875025   0.0034254   0.0072897  -0.0713175   1.9027988
    8  -0.2381508   0.9636608  -0.0947671   0.3281934  -0.1662100  -0.0410960
    9  -0.0517847   0.1008493   0.0012503   0.7566092   0.1001210  -0.0267325
   10   0.0022298   0.0041666   0.0004756   0.0236875   0.8293626   0.0625722
   11   0.0009172   0.0188966  -0.0003457  -0.0410115   0.1084520   0.7707473
   12  -0.0005083   0.0020576   0.0012822   0.0011095  -0.0202446   0.0660949
   13  -0.0245915   0.0529718   0.0006796  -0.0658471   0.0197705  -0.0340178
            7           8           9          10          11          12
    1   0.0170004  -0.2381508  -0.0517847   0.0022298   0.0009172  -0.0005083
    2   0.1875025   0.9636608   0.1008493   0.0041666   0.0188966   0.0020576
    3   0.0034254  -0.0947671   0.0012503   0.0004756  -0.0003457   0.0012822
    4   0.0072897   0.3281934   0.7566092   0.0236875  -0.0410115   0.0011095
    5  -0.0713175  -0.1662100   0.1001210   0.8293626   0.1084520  -0.0202446
    6   1.9027988  -0.0410960  -0.0267325   0.0625722   0.7707473   0.0660949
    7   4.7575099   1.6461891   0.0110848  -0.0177673   0.1057536   0.7992151
    8   1.6461891   3.1855336  -0.0356496   0.0014663  -0.0349051   0.0561648
    9   0.0110848  -0.0356496   0.8634509   0.0067298   0.0004824   0.0000549
   10  -0.0177673   0.0014663   0.0067298   0.9227810   0.0091002   0.0007287
   11   0.1057536  -0.0349051   0.0004824   0.0091002   0.9483379   0.0099489
   12   0.7992151   0.0561648   0.0000549   0.0007287   0.0099489   0.9240339
   13   0.1663353   0.8006379   0.0004361   0.0000290   0.0003019   0.0081303
           13
    1  -0.0245915
    2   0.0529718
    3   0.0006796
    4  -0.0658471
    5   0.0197705
    6  -0.0340178
    7   0.1663353
    8   0.8006379
    9   0.0004361
   10   0.0000290
   11   0.0003019
   12   0.0081303
   13   0.9248358


 JobOver = TRUE
Archival summary:
1\1\qciep03\SP\HF\BasisUnspecified\166\jcartus\ThuJan2517:48:402018ThuJan2517:48:402018\0\\#,HF,BasisUnspecified,\\0,1\C\O,1,1.37783\H,2,0.963353,1,108.555\C,1,1.39156,2,122.054,3,2.76649,0\H,4,1.08345,1,120.088,2,-0.470869,0\C,1,1.39235,2,117.22,3,-177.829,0\H,6,1.08113,1,119.419,2,0.538499,0\C,6,1.39107,1,119.237,2,-179.347,0\H,8,1.08105,6,119.197,1,179.772,0\C,4,1.39342,1,119.547,2,179.497,0\H,10,1.08113,4,119.41,1,179.905,0\C,10,1.39213,4,120.282,1,-0.209656,0\H,12,1.08044,10,120.177,4,-179.838,0\\HF=-305.638332\\@

 Total job time:  162.70s(wall), 160.53s(cpu) 
 Thu Jan 25 17:48:40 2018

        *************************************************************
        *                                                           *
        *  Thank you very much for using Q-Chem.  Have a nice day.  *
        *                                                           *
        *************************************************************


*** MISSION COMPLETED -- STARFLEET OUT ***

0 sent ACK to 0 
now end server 0 ... 
