Process 0 of 1 is on qciep03 - thread support 0
initial socket setup ...start
initial socket setup ...done 
now start server 0 ... 
qciep03.tugraz.at 127.0.1
Q-Chem Developer Version! Running on 127.0.1.*
                  Welcome to Q-Chem
     A Quantum Leap Into The Future Of Chemistry


 Q-Chem 5.0, Q-Chem, Inc., Pleasanton, CA (2017)

 Yihan Shao,  Zhengting Gan,  E. Epifanovsky,  A. T. B. Gilbert,  M. Wormit,  
 J. Kussmann,  A. W. Lange,  A. Behn,  Jia Deng,  Xintian Feng,  D. Ghosh,  
 M. Goldey,  P. R. Horn,  L. D. Jacobson,  I. Kaliman,  T. Kus,  A. Landau,  
 Jie Liu,  E. I. Proynov,  R. M. Richard,  R. P. Steele,  E. J. Sundstrom,  
 H. L. Woodcock III,  P. M. Zimmerman,  D. Zuev,  B. Albrecht,  E. Alguire,  
 S. A. Baeppler,  D. Barton,  Z. Benda,  Y. A. Bernard,  E. J. Berquist,  
 K. B. Bravaya,  H. Burton,  D. Casanova,  Chun-Min Chang,  Yunqing Chen,  
 A. Chien,  K. D. Closser,  M. P. Coons,  S. Dasgupta,  A. L. Dempwolff,  
 M. Diedenhofen,  Hainam Do,  R. G. Edgar,  Po-Tung Fang,  S. Fatehi,  
 Qingguo Feng,  J. Fosso-Tande,  Qinghui Ge,  A. Ghysels,  G. Gidofalvi,  
 J. Gomes,  J. Gonthier,  A. Gunina,  M. W. D. Hanson-Heine,  
 P. H. P. Harbach,  A. W. Hauser,  J. E. Herr,  E. G. Hohenstein,  
 Z. C. Holden,  Kerwin Hui,  T.-C. Jagau,  Hyunjun Ji,  B. Kaduk,  
 K. Khistyaev,  Jaehoon Kim,  P. Klunzinger,  K. Koh,  D. Kosenkov,  
 L. Koulias,  T. Kowalczyk,  C. M. Krauter,  A. Kunitsa,  Ka Un Lao,  
 A. Laurent,  K. V. Lawler,  Joonho Lee,  D. Lefrancois,  S. Lehtola,  
 D. S. Levine,  Yi-Pei Li,  You-Sheng Lin,  Fenglai Liu,  E. Livshits,  
 A. Luenser,  P. Manohar,  E. Mansoor,  S. F. Manzer,  Shan-Ping Mao,  
 Yuezhi Mao,  N. Mardirossian,  A. V. Marenich,  T. Markovich,  
 L. A. Martinez-Martinez,  S. A. Maurer,  N. J. Mayhall,  S. C. McKenzie,  
 J.-M. Mewes,  A. F. Morrison,  J. W. Mullinax,  K. Nanda,  
 T. S. Nguyen-Beck,  R. Olivares-Amaya,  J. A. Parkhill,  T. M. Perrine,  
 F. Plasser,  S. Prager,  A. Prociuk,  E. Ramos,  D. R. Rehn,  F. Rob,  
 M. Schneider,  N. Sergueev,  S. M. Sharada,  S. Sharma,  D. W. Small,  
 T. Stauch,  T. Stein,  Yu-Chuan Su,  A. J. W. Thom,  A. Tkatchenko,  
 T. Tsuchimochi,  L. Vogt,  O. Vydrov,  M. A. Watson,  J. Wenzel,  
 M. de Wergifosse,  T. A. Wesolowski,  A. White,  J. Witte,  A. Yamada,  
 Jun Yang,  K. Yao,  S. Yeganeh,  S. R. Yost,  Zhi-Qiang You,  A. Zech,  
 Igor Ying Zhang,  Xing Zhang,  Yan Zhao,  Ying Zhu,  B. R. Brooks,  
 G. K. L. Chan,  C. J. Cramer,  M. S. Gordon,  W. J. Hehre,  A. Klamt,  
 M. W. Schmidt,  C. D. Sherrill,  D. G. Truhlar,  A. Aspuru-Guzik,  R. Baer,  
 A. T. Bell,  N. A. Besley,  Jeng-Da Chai,  R. A. DiStasio Jr.,  A. Dreuw,  
 B. D. Dunietz,  T. R. Furlani,  Chao-Ping Hsu,  Yousung Jung,  Jing Kong,  
 D. S. Lambrecht,  WanZhen Liang,  C. Ochsenfeld,  V. A. Rassolov,  
 L. V. Slipchenko,  J. E. Subotnik,  T. Van Voorhis,  J. M. Herbert,  
 A. I. Krylov,  P. M. W. Gill,  M. Head-Gordon

 Contributors to earlier versions of Q-Chem not listed above: 
 R. D. Adamson,  B. Austin,  J. Baker,  G. J. O. Beran,  K. Brandhorst,  
 S. T. Brown,  E. F. C. Byrd,  A. K. Chakraborty,  C.-L. Cheng,  
 Siu Hung Chien,  D. M. Chipman,  D. L. Crittenden,  H. Dachsel,  
 R. J. Doerksen,  A. D. Dutoi,  L. Fusti-Molnar,  W. A. Goddard III,  
 A. Golubeva-Zadorozhnaya,  S. R. Gwaltney,  G. Hawkins,  A. Heyden,  
 S. Hirata,  G. Kedziora,  F. J. Keil,  C. Kelley,  Jihan Kim,  R. A. King,  
 R. Z. Khaliullin,  P. P. Korambath,  W. Kurlancheek,  A. M. Lee,  M. S. Lee,  
 S. V. Levchenko,  Ching Yeh Lin,  D. Liotard,  R. C. Lochan,  I. Lotan,  
 P. E. Maslen,  N. Nair,  D. P. O'Neill,  D. Neuhauser,  E. Neuscamman,  
 C. M. Oana,  R. Olson,  B. Peters,  R. Peverati,  P. A. Pieniazek,  
 Y. M. Rhee,  J. Ritchie,  M. A. Rohrdanz,  E. Rosta,  N. J. Russ,  
 H. F. Schaefer III,  N. E. Schultz,  N. Shenvi,  A. C. Simmonett,  A. Sodt,  
 D. Stuck,  K. S. Thanthiriwatte,  V. Vanovschi,  Tao Wang,  A. Warshel,  
 C. F. Williams,  Q. Wu,  X. Xu,  W. Zhang

 Please cite Q-Chem as follows:
 Y. Shao et al., Mol. Phys. 113, 184-215 (2015)
 DOI: 10.1080/00268976.2014.952696

 Q-Chem 5.0.2 for Intel X86 EM64T Linux

 Parts of Q-Chem use Armadillo 5.200.1 (Boston Tea Smuggler).
 http://arma.sourceforge.net/

 Q-Chem begins on Thu Feb  1 12:21:10 2018  


Host: 0

     Scratch files written to /home/jcartus/scratch/07_trifluoromethane-methane.dir//
 Using version located at /usr/local/qchem/bin/qchem

 Parallel job on  1  processors

Total Memory Limit in MB = 2000
Mega-Array Size in MB = 192

Checking the input file for inconsistencies... 	...done.
Finally everything over in PARseQInput

--------------------------------------------------------------
User input:
--------------------------------------------------------------
$rem
SCF_PRINT                     1
BASIS                         6-311++g**
SCF_SAVE_MATRICES             1
SCF_CONVERGENCE               5
SCF_FINAL_PRINT               1
METHOD                        hf
JOBTYPE                       sp
$end

$molecule
0 1
C    2.3411e-05    0.000105759    2.053285735
F    -1.082526715    0.625339904    1.589816968
F    1.082627682    0.625237764    1.589922249
F    -2.386e-05    -1.249820225    1.589264753
H    -4.196e-05    -0.000280062    3.138092074
C    -1.0064e-05    -8.2573e-05    -1.743091435
H    -3.612e-06    0.000105999    -2.828619365
H    -0.885658535    -0.511600583    -1.379811314
H    0.885727513    -0.511445556    -1.379800941
H    -0.00010144    1.022550877    -1.379525404
$end


--------------------------------------------------------------
 ----------------------------------------------------------------
             Standard Nuclear Orientation (Angstroms)
    I     Atom           X                Y                Z
 ----------------------------------------------------------------
    1      C      -1.1225462412    -0.0002343452    -0.0000713775
    2      F      -0.6591665598     0.8420503224    -0.9239066545
    3      F      -0.6593243288     0.3790926941     1.1911734371
    4      F      -0.6582947054    -1.2211741165    -0.2672923082
    5      H      -2.2073524887    -0.0007871254    -0.0002861931
    6      C       2.6738308987     0.0002532405     0.0000953000
    7      H       3.7593587749     0.0006260532     0.0002104371
    8      H       2.3106666160    -0.3101731391    -0.9744525447
    9      H       2.3106132568    -0.6887013454     0.7560170301
   10      H       2.3100762418     0.9992020848     0.2185974655
 ----------------------------------------------------------------
 Molecular Point Group                 C1    NOp =  1
 Largest Abelian Subgroup              C1    NOp =  1
 Nuclear Repulsion Energy =   196.6839066052 hartrees
 There are       22 alpha and       22 beta electrons
 Requested basis set is 6-311++G(d,p)
 There are 55 shells and 145 basis functions

 Total QAlloc Memory Limit   2000 MB
 Mega-Array Size       188 MB
 MEM_STATIC part       192 MB

finished with qalloc call

                       Distance Matrix (Angstroms)
             C (  1)   F (  2)   F (  3)   F (  4)   H (  5)   C (  6)
   F (  2)  1.333280
   F (  3)  1.333240  2.165154
   F (  4)  1.333278  2.165188  2.165174
   H (  5)  1.084806  1.990058  1.990044  1.990029
   C (  6)  3.796377  3.559673  3.559791  3.558995  4.881184
   H (  7)  4.881905  4.591879  4.591992  4.591298  5.966711  1.085528
   H (  8)  3.582238  3.185919  3.739769  3.185079  4.632193  1.085355
   H (  9)  3.582212  3.739644  3.185918  3.185138  4.632195  1.085359
   H ( 10)  3.581841  3.185344  3.185558  3.738634  4.631960  1.085338
             H (  7)   H (  8)   H (  9)
   H (  8)  1.773492
   H (  9)  1.773494  1.771386
   H ( 10)  1.773490  1.771393  1.771394

 Job number = 2, Threshold = 1.00E-08
Integral type ranges set in mkLRange.C for JobNum: 2  <1-21|1-21>
Symmetry turned off temporarily
 Using the largest function pair in Schwarz integrals
Total number of integrals generated =          147722
Symmetry turned back on
 A cutoff of  1.0D-08 yielded   1305 shell pairs
 There are      9310 function pairs (      9950 Cartesian)
 Job number = 11, Threshold = 1.00E-08
Integral type ranges set in mkLRange.C for JobNum: 11  <1-21|22-22>
Total number of integrals generated =           99500
 Smallest overlap matrix eigenvalue = 7.78E-04
 Multipole matrices computed through 2nd order

 Scale SEOQF with 1.000000e-01/1.000000e-01/1.000000e-01

 Standard Electronic Orientation quadrupole field applied
 Nucleus-field energy     =     0.0000000027 hartrees
 ENuRep (before)= 196.6839066052
 ENucField = 0.0000000027
 ENuRep (after) = 196.6839066079
 Guess from superposition of atomic densities
 Warning:  Energy on first SCF cycle will be non-variational
 SAD guess density has 44.000000 electrons

 ==================================================
    GEN_SCFMAN: A general SCF calculation manager  
                                                   
    Authors:                                       
        -- Eric Jon Sundstrom 2008-2014            
        -- Paul Horn 2010-2015                     
        -- Yuezhi Mao 2012-                        
        -- Dmitri Zuev 2014                        
        -- Alec White 2015-                        
        -- David Stuck 2015                        
        -- Shaama M.S. 2015                        
        -- Shane Yost 2015-                         
        -- Joonho Lee 2016-                        
        -- David Small 2016-                       
        -- Daniel Levine 2016-                     
        -- Susi Lehtola 2017-                      
        -- Hugh Burton 2017-                       
 ==================================================
 Hartree-Fock
Finding J and K together
 Job number = 22, Threshold = 1.00E-08
Integral type ranges set in mkLRange.C for JobNum: 22  <1-21|1-21>
 MakeJK  time:  CPU       1.94 s  wall       2.35 s
 HF Exchange:              -42.09833779182075
 One-Electron:             -912.16801960382998
 Total Coulomb:            379.88261065071015
 Nuclear repulsion:        196.68390660786443
 A restricted SCF calculation will be
 performed using DIIS
 SCF converges when DIIS error is below 1.0e-05
 ---------------------------------------
  Cycle       Energy         DIIS error
 ---------------------------------------
Finding J and K together
 Job number = 22, Threshold = 1.00E-08
Integral type ranges set in mkLRange.C for JobNum: 22  <1-21|1-21>
 MakeJK  time:  CPU       5.67 s  wall       6.19 s
 HF Exchange:              -42.51599735712477
 One-Electron:             -913.32281254168595
 Total Coulomb:            382.20304579358668
 Nuclear repulsion:        196.68390660786443
    1    -377.6998401371      4.85e-02  
Finding J and K together
 Job number = 22, Threshold = 1.00E-08
Integral type ranges set in mkLRange.C for JobNum: 22  <1-21|1-21>
 MakeJK  time:  CPU       5.82 s  wall       6.79 s
 HF Exchange:              -42.20223670107752
 One-Electron:             -913.04196610048871
 Total Coulomb:            381.50900906319765
 Nuclear repulsion:        196.68390660786443
    2    -376.9518574974      7.72e-03  
Finding J and K together
 Job number = 22, Threshold = 1.00E-08
Integral type ranges set in mkLRange.C for JobNum: 22  <1-21|1-21>
 MakeJK  time:  CPU       5.71 s  wall       6.33 s
 HF Exchange:              -42.41957969330615
 One-Electron:             -913.84377075913858
 Total Coulomb:            382.49888021675076
 Nuclear repulsion:        196.68390660786443
    3    -377.0512871305      4.36e-03  
Finding J and K together
 Job number = 22, Threshold = 1.00E-08
Integral type ranges set in mkLRange.C for JobNum: 22  <1-21|1-21>
 MakeJK  time:  CPU       5.70 s  wall       6.43 s
 HF Exchange:              -42.39852282555932
 One-Electron:             -913.61492302060674
 Total Coulomb:            382.24794898160320
 Nuclear repulsion:        196.68390660786443
    4    -377.0805636278      5.77e-04  
Finding J and K together
 Job number = 22, Threshold = 1.00E-08
Integral type ranges set in mkLRange.C for JobNum: 22  <1-21|1-21>
 MakeJK  time:  CPU       5.64 s  wall       6.95 s
 HF Exchange:              -42.41034403420644
 One-Electron:             -913.69155252081612
 Total Coulomb:            382.33627141836348
 Nuclear repulsion:        196.68390660786443
    5    -377.0815902567      1.91e-04  
Finding J and K together
 Job number = 22, Threshold = 1.00E-08
Integral type ranges set in mkLRange.C for JobNum: 22  <1-21|1-21>
 MakeJK  time:  CPU       5.45 s  wall       6.46 s
 HF Exchange:              -42.41051542742916
 One-Electron:             -913.68966411248471
 Total Coulomb:            382.33454746858018
 Nuclear repulsion:        196.68390660786443
    6    -377.0817185288      3.42e-05  
    7    -377.0817254635      6.64e-06  Convergence criterion met
 ---------------------------------------
 SCF time:   CPU 36.55s  wall 42.00s 
 Total energy in the final basis set =     -377.0817254635
 HF Exchange:              -42.41051542742916
 One-Electron:             -913.68966411248471
 Total Coulomb:            382.33454746858018
 Nuclear repulsion:        196.68390660786443
Wall  1 = 42
Clock 1 = 36.65429306030273
 ==================================================
                  Done GEN_SCFMAN                  
 ==================================================

Symmetry turned off temporarily

 --------------------------------------------------------------

                    Orbital Energies (a.u.)
 --------------------------------------------------------------

 Alpha MOs
 -- Occupied --
-26.350 -26.350 -26.350 -11.517 -11.197  -1.744  -1.648  -1.648
 -0.998  -0.937  -0.856  -0.834  -0.834  -0.718  -0.718  -0.674
 -0.674  -0.657  -0.604  -0.538  -0.538  -0.538
 -- Virtual --
  0.039   0.052   0.085   0.085   0.087   0.110   0.110   0.153
  0.160   0.160   0.175   0.200   0.241   0.302   0.307   0.308
  0.314   0.314   0.347   0.351   0.351   0.373   0.382   0.382
  0.419   0.425   0.434   0.434   0.437   0.495   0.535   0.535
  0.546   0.569   0.569   0.655   0.739   0.776   0.776   0.822
  0.890   0.890   0.890   0.952   1.062   1.140   1.225   1.225
  1.331   1.331   1.483   1.483   1.630   1.630   1.653   1.673
  1.699   1.699   1.737   1.740   1.748   1.748   1.814   1.825
  1.825   1.889   2.027   2.027   2.058   2.058   2.217   2.217
  2.232   2.238   2.238   2.401   2.656   2.656   2.710   2.740
  2.813   2.813   2.929   2.955   2.955   2.956   2.989   3.297
  3.297   3.324   3.624   4.133   4.164   4.164   4.167   4.190
  4.190   4.225   4.225   4.228   4.249   4.362   4.362   4.581
  4.648   4.648   5.038   5.360   5.360   6.868   6.868   6.953
  6.961   6.961   7.007   7.109   7.366   7.366  24.721  25.229
 68.702  68.702  68.777
 --------------------------------------------------------------

          Ground-State Mulliken Net Atomic Charges

     Atom                 Charge (a.u.)
  ----------------------------------------
      1 C                     0.399246
      2 F                    -0.196895
      3 F                    -0.196860
      4 F                    -0.196872
      5 H                     0.197687
      6 C                    -0.534111
      7 H                     0.113653
      8 H                     0.138049
      9 H                     0.138048
     10 H                     0.138056
  ----------------------------------------
  Sum of atomic charges =    -0.000000

 -----------------------------------------------------------------
                    Cartesian Multipole Moments
 -----------------------------------------------------------------
    Charge (ESU x 10^10)
                 0.0000
    Dipole Moment (Debye)
         X      -2.0089      Y      -0.0009      Z      -0.0001
       Tot       2.0089
    Quadrupole Moments (Debye-Ang)
        XX     -23.8744     XY       0.0030     YY     -31.1126
        XZ       0.0009     YZ       0.0001     ZZ     -31.1125
    Octopole Moments (Debye-Ang^2)
       XXX     -28.7853    XXY      -0.0052    XYY      -4.7604
       YYY       1.8805    XXZ      -0.0018    XYZ      -0.0003
       YYZ       1.4196    XZZ      -4.7587    YZZ      -1.8820
       ZZZ      -1.4197
    Hexadecapole Moments (Debye-Ang^3)
      XXXX    -457.1229   XXXY       0.0057   XXYY    -100.3751
      XYYY      -0.4188   YYYY    -100.3987   XXXZ       0.0014
      XXYZ       0.0004   XYYZ      -0.3116   YYYZ      -0.0003
      XXZZ    -100.3768   XYZZ       0.4080   YYZZ     -33.4652
      XZZZ       0.3071   YZZZ       0.0006   ZZZZ    -100.3947
 -----------------------------------------------------------------
 Mayer SCF Bond Order, atomic valence on the diagonal:

            1           2           3           4           5           6
    1   4.0142204   1.0121067   1.0121443   1.0120711   0.9780485   0.0005615
    2   1.0121067   1.0243429   0.0207903   0.0207909  -0.0284553   0.0110372
    3   1.0121443   0.0207903   1.0243879   0.0207926  -0.0284506   0.0110417
    4   1.0120711   0.0207909   0.0207926   1.0242886  -0.0284749   0.0110217
    5   0.9780485  -0.0284553  -0.0284506  -0.0284749   0.8940057   0.0000175
    6   0.0005615   0.0110372   0.0110417   0.0110217   0.0000175   3.9117332
    7  -0.0009811   0.0014595   0.0014596   0.0014594  -0.0000336   0.9811536
    8   0.0000896  -0.0058456  -0.0016981  -0.0058368   0.0004514   0.9656347
    9   0.0000897  -0.0016980  -0.0058461  -0.0058377   0.0004514   0.9656351
   10   0.0000902  -0.0058429  -0.0058459  -0.0016977   0.0004512   0.9656301
            7           8           9          10
    1  -0.0009811   0.0000896   0.0000897   0.0000902
    2   0.0014595  -0.0058456  -0.0016980  -0.0058429
    3   0.0014596  -0.0016981  -0.0058461  -0.0058459
    4   0.0014594  -0.0058368  -0.0058377  -0.0016977
    5  -0.0000336   0.0004514   0.0004514   0.0004512
    6   0.9811536   0.9656347   0.9656351   0.9656301
    7   0.9429203  -0.0138667  -0.0138662  -0.0138642
    8  -0.0138667   0.9023082  -0.0183110  -0.0183092
    9  -0.0138662  -0.0183110   0.9023075  -0.0183098
   10  -0.0138642  -0.0183092  -0.0183098   0.9023018


 JobOver = TRUE
Archival summary:
1\1\qciep03\SP\HF\BasisUnspecified\325\jcartus\ThuFeb112:21:522018ThuFeb112:21:522018\0\\#,HF,BasisUnspecified,\\0,1\F\C,1,1.33328\H,2,1.08481,1,110.347\F,2,1.33324,1,108.581,3,121.062,0\F,2,1.33328,1,108.579,3,-121.059,0\H,1,3.18508,2,96.1512,3,163.755,0\C,6,1.08536,1,101.207,2,69.2087,0\H,7,1.08534,6,109.382,1,-80.1464,0\H,7,1.08536,6,109.38,1,39.6355,0\H,7,1.08553,6,109.56,1,159.743,0\\HF=-377.081725\\@

 Total job time:  42.74s(wall), 37.08s(cpu) 
 Thu Feb  1 12:21:52 2018

        *************************************************************
        *                                                           *
        *  Thank you very much for using Q-Chem.  Have a nice day.  *
        *                                                           *
        *************************************************************


*** MISSION COMPLETED -- STARFLEET OUT ***

0 sent ACK to 0 
now end server 0 ... 
