Process 0 of 1 is on qciep03 - thread support 0
initial socket setup ...start
initial socket setup ...done 
now start server 0 ... 
qciep03.tugraz.at 127.0.1
Q-Chem Developer Version! Running on 127.0.1.*
                  Welcome to Q-Chem
     A Quantum Leap Into The Future Of Chemistry


 Q-Chem 5.0, Q-Chem, Inc., Pleasanton, CA (2017)

 Yihan Shao,  Zhengting Gan,  E. Epifanovsky,  A. T. B. Gilbert,  M. Wormit,  
 J. Kussmann,  A. W. Lange,  A. Behn,  Jia Deng,  Xintian Feng,  D. Ghosh,  
 M. Goldey,  P. R. Horn,  L. D. Jacobson,  I. Kaliman,  T. Kus,  A. Landau,  
 Jie Liu,  E. I. Proynov,  R. M. Richard,  R. P. Steele,  E. J. Sundstrom,  
 H. L. Woodcock III,  P. M. Zimmerman,  D. Zuev,  B. Albrecht,  E. Alguire,  
 S. A. Baeppler,  D. Barton,  Z. Benda,  Y. A. Bernard,  E. J. Berquist,  
 K. B. Bravaya,  H. Burton,  D. Casanova,  Chun-Min Chang,  Yunqing Chen,  
 A. Chien,  K. D. Closser,  M. P. Coons,  S. Dasgupta,  A. L. Dempwolff,  
 M. Diedenhofen,  Hainam Do,  R. G. Edgar,  Po-Tung Fang,  S. Fatehi,  
 Qingguo Feng,  J. Fosso-Tande,  Qinghui Ge,  A. Ghysels,  G. Gidofalvi,  
 J. Gomes,  J. Gonthier,  A. Gunina,  M. W. D. Hanson-Heine,  
 P. H. P. Harbach,  A. W. Hauser,  J. E. Herr,  E. G. Hohenstein,  
 Z. C. Holden,  Kerwin Hui,  T.-C. Jagau,  Hyunjun Ji,  B. Kaduk,  
 K. Khistyaev,  Jaehoon Kim,  P. Klunzinger,  K. Koh,  D. Kosenkov,  
 L. Koulias,  T. Kowalczyk,  C. M. Krauter,  A. Kunitsa,  Ka Un Lao,  
 A. Laurent,  K. V. Lawler,  Joonho Lee,  D. Lefrancois,  S. Lehtola,  
 D. S. Levine,  Yi-Pei Li,  You-Sheng Lin,  Fenglai Liu,  E. Livshits,  
 A. Luenser,  P. Manohar,  E. Mansoor,  S. F. Manzer,  Shan-Ping Mao,  
 Yuezhi Mao,  N. Mardirossian,  A. V. Marenich,  T. Markovich,  
 L. A. Martinez-Martinez,  S. A. Maurer,  N. J. Mayhall,  S. C. McKenzie,  
 J.-M. Mewes,  A. F. Morrison,  J. W. Mullinax,  K. Nanda,  
 T. S. Nguyen-Beck,  R. Olivares-Amaya,  J. A. Parkhill,  T. M. Perrine,  
 F. Plasser,  S. Prager,  A. Prociuk,  E. Ramos,  D. R. Rehn,  F. Rob,  
 M. Schneider,  N. Sergueev,  S. M. Sharada,  S. Sharma,  D. W. Small,  
 T. Stauch,  T. Stein,  Yu-Chuan Su,  A. J. W. Thom,  A. Tkatchenko,  
 T. Tsuchimochi,  L. Vogt,  O. Vydrov,  M. A. Watson,  J. Wenzel,  
 M. de Wergifosse,  T. A. Wesolowski,  A. White,  J. Witte,  A. Yamada,  
 Jun Yang,  K. Yao,  S. Yeganeh,  S. R. Yost,  Zhi-Qiang You,  A. Zech,  
 Igor Ying Zhang,  Xing Zhang,  Yan Zhao,  Ying Zhu,  B. R. Brooks,  
 G. K. L. Chan,  C. J. Cramer,  M. S. Gordon,  W. J. Hehre,  A. Klamt,  
 M. W. Schmidt,  C. D. Sherrill,  D. G. Truhlar,  A. Aspuru-Guzik,  R. Baer,  
 A. T. Bell,  N. A. Besley,  Jeng-Da Chai,  R. A. DiStasio Jr.,  A. Dreuw,  
 B. D. Dunietz,  T. R. Furlani,  Chao-Ping Hsu,  Yousung Jung,  Jing Kong,  
 D. S. Lambrecht,  WanZhen Liang,  C. Ochsenfeld,  V. A. Rassolov,  
 L. V. Slipchenko,  J. E. Subotnik,  T. Van Voorhis,  J. M. Herbert,  
 A. I. Krylov,  P. M. W. Gill,  M. Head-Gordon

 Contributors to earlier versions of Q-Chem not listed above: 
 R. D. Adamson,  B. Austin,  J. Baker,  G. J. O. Beran,  K. Brandhorst,  
 S. T. Brown,  E. F. C. Byrd,  A. K. Chakraborty,  C.-L. Cheng,  
 Siu Hung Chien,  D. M. Chipman,  D. L. Crittenden,  H. Dachsel,  
 R. J. Doerksen,  A. D. Dutoi,  L. Fusti-Molnar,  W. A. Goddard III,  
 A. Golubeva-Zadorozhnaya,  S. R. Gwaltney,  G. Hawkins,  A. Heyden,  
 S. Hirata,  G. Kedziora,  F. J. Keil,  C. Kelley,  Jihan Kim,  R. A. King,  
 R. Z. Khaliullin,  P. P. Korambath,  W. Kurlancheek,  A. M. Lee,  M. S. Lee,  
 S. V. Levchenko,  Ching Yeh Lin,  D. Liotard,  R. C. Lochan,  I. Lotan,  
 P. E. Maslen,  N. Nair,  D. P. O'Neill,  D. Neuhauser,  E. Neuscamman,  
 C. M. Oana,  R. Olson,  B. Peters,  R. Peverati,  P. A. Pieniazek,  
 Y. M. Rhee,  J. Ritchie,  M. A. Rohrdanz,  E. Rosta,  N. J. Russ,  
 H. F. Schaefer III,  N. E. Schultz,  N. Shenvi,  A. C. Simmonett,  A. Sodt,  
 D. Stuck,  K. S. Thanthiriwatte,  V. Vanovschi,  Tao Wang,  A. Warshel,  
 C. F. Williams,  Q. Wu,  X. Xu,  W. Zhang

 Please cite Q-Chem as follows:
 Y. Shao et al., Mol. Phys. 113, 184-215 (2015)
 DOI: 10.1080/00268976.2014.952696

 Q-Chem 5.0.2 for Intel X86 EM64T Linux

 Parts of Q-Chem use Armadillo 5.200.1 (Boston Tea Smuggler).
 http://arma.sourceforge.net/

 Q-Chem begins on Sat Apr 21 18:25:54 2018  


Host: 0

     Scratch files written to /home/jcartus/scratch/qchem15788//
 Using version located at /usr/local/qchem/bin/qchem

 Parallel job on  1  processors
Symmetry disabled for AIMD jobs.

Total Memory Limit in MB = 2000
Mega-Array Size in MB = 192

Checking the input file for inconsistencies... 	...done.
Finally everything over in PARseQInput

--------------------------------------------------------------
User input:
--------------------------------------------------------------
$rem
   JOBTYPE              aimd
   AIMD_METHOD          bomd
   METHOD               hf
   BASIS                6-31g*
   TIME_STEP            20        (20 a.u. = 0.48 fs) 
   AIMD_STEPS           200
   AIMD_INIT_VELOC      thermal
   AIMD_TEMP            298
$end 


$molecule
   0 1
   C       -2.83034        2.46352        0.00000
   C       -1.31827        2.46353       -0.00000
   H       -3.34634        3.31757        0.26337
   H       -3.34634        1.60947       -0.26337
   H       -0.80227        3.31758        0.26337
   H       -0.80227        1.60948       -0.26337
$end


--------------------------------------------------------------
 ----------------------------------------------------------------
             Standard Nuclear Orientation (Angstroms)
    I     Atom           X                Y                Z
 ----------------------------------------------------------------
    1      C      -2.8303400000     2.4635200000     0.0000000000
    2      C      -1.3182700000     2.4635300000    -0.0000000000
    3      H      -3.3463400000     3.3175700000     0.2633700000
    4      H      -3.3463400000     1.6094700000    -0.2633700000
    5      H      -0.8022700000     3.3175800000     0.2633700000
    6      H      -0.8022700000     1.6094800000    -0.2633700000
 ----------------------------------------------------------------
 Nuclear Repulsion Energy =    31.9843057187 hartrees
 There are        8 alpha and        8 beta electrons
 Requested basis set is 6-31G(d)
 There are 16 shells and 38 basis functions

 Total QAlloc Memory Limit   2000 MB
 Mega-Array Size       188 MB
 MEM_STATIC part       192 MB

finished with qalloc call

                       Distance Matrix (Angstroms)
             C (  1)   C (  2)   H (  3)   H (  4)   H (  5)
   C (  2)  1.512070
   H (  3)  1.031999  2.216262
   H (  4)  1.031999  2.216269  1.787473
   H (  5)  2.216269  1.031999  2.544070  3.109242
   H (  6)  2.216262  1.031999  3.109231  2.544070  1.787473

 Job number = 2, Threshold = 1.00E-11
Integral type ranges set in mkLRange.C for JobNum: 2  <1-21|1-21>
Symmetry turned off temporarily
 Using the largest function pair in Schwarz integrals
Total number of integrals generated =           12471
Symmetry turned back on
 A cutoff of  1.0D-11 yielded    136 shell pairs
 There are       795 function pairs
 Job number = 11, Threshold = 1.00E-11
Integral type ranges set in mkLRange.C for JobNum: 11  <1-21|22-22>
Total number of integrals generated =            4770
 Smallest overlap matrix eigenvalue = 1.24E-02
 Multipole matrices computed through 2nd order

 Scale SEOQF with 1.000000e-01/1.000000e-01/1.000000e+00

 Standard Electronic Orientation quadrupole field applied
 Nucleus-field energy     =     0.0000000098 hartrees
 ENuRep (before)= 31.9843057187
 ENucField = 0.0000000098
 ENuRep (after) = 31.9843057285
 Guess from superposition of atomic densities
 Warning:  Energy on first SCF cycle will be non-variational
 SAD guess density has 16.000000 electrons

 ==================================================
    GEN_SCFMAN: A general SCF calculation manager  
                                                   
    Authors:                                       
        -- Eric Jon Sundstrom 2008-2014            
        -- Paul Horn 2010-2015                     
        -- Yuezhi Mao 2012-                        
        -- Dmitri Zuev 2014                        
        -- Alec White 2015-                        
        -- David Stuck 2015                        
        -- Shaama M.S. 2015                        
        -- Shane Yost 2015-                         
        -- Joonho Lee 2016-                        
        -- David Small 2016-                       
        -- Daniel Levine 2016-                     
        -- Susi Lehtola 2017-                      
        -- Hugh Burton 2017-                       
 ==================================================
 Hartree-Fock
Finding J and K together
 Job number = 22, Threshold = 1.00E-11
Integral type ranges set in mkLRange.C for JobNum: 22  <1-21|1-21>
 MakeJK  time:  CPU       0.10 s  wall       0.10 s
 A restricted SCF calculation will be
 performed using DIIS
 SCF converges when DIIS error is below 1.0e-08
 ---------------------------------------
  Cycle       Energy         DIIS error
 ---------------------------------------
Finding J and K together
 Job number = 22, Threshold = 1.00E-11
Integral type ranges set in mkLRange.C for JobNum: 22  <1-21|1-21>
 MakeJK  time:  CPU       0.12 s  wall       0.12 s
    1     -78.2373568111      1.14e-01  
Finding J and K together
 Job number = 22, Threshold = 1.00E-11
Integral type ranges set in mkLRange.C for JobNum: 22  <1-21|1-21>
 MakeJK  time:  CPU       0.12 s  wall       0.12 s
    2     -77.9685657831      8.86e-03  
Finding J and K together
 Job number = 22, Threshold = 1.00E-11
Integral type ranges set in mkLRange.C for JobNum: 22  <1-21|1-21>
 MakeJK  time:  CPU       0.12 s  wall       0.12 s
    3     -77.9891127864      2.16e-03  
Finding J and K together
 Job number = 22, Threshold = 1.00E-11
Integral type ranges set in mkLRange.C for JobNum: 22  <1-21|1-21>
 MakeJK  time:  CPU       0.12 s  wall       0.12 s
    4     -77.9904826409      3.84e-04  
Finding J and K together
 Job number = 22, Threshold = 1.00E-11
Integral type ranges set in mkLRange.C for JobNum: 22  <1-21|1-21>
 MakeJK  time:  CPU       0.12 s  wall       0.12 s
    5     -77.9905181033      7.48e-05  
Finding J and K together
 Job number = 22, Threshold = 1.00E-11
Integral type ranges set in mkLRange.C for JobNum: 22  <1-21|1-21>
 MakeJK  time:  CPU       0.12 s  wall       0.12 s
    6     -77.9905200185      1.09e-05  
Finding J and K together
 Job number = 22, Threshold = 1.00E-11
Integral type ranges set in mkLRange.C for JobNum: 22  <1-21|1-21>
 MakeJK  time:  CPU       0.12 s  wall       0.12 s
    7     -77.9905200649      2.13e-06  
Finding J and K together
 Job number = 22, Threshold = 1.00E-11
Integral type ranges set in mkLRange.C for JobNum: 22  <1-21|1-21>
 MakeJK  time:  CPU       0.12 s  wall       0.12 s
    8     -77.9905200669      1.37e-07  
Finding J and K together
 Job number = 22, Threshold = 1.00E-11
Integral type ranges set in mkLRange.C for JobNum: 22  <1-21|1-21>
 MakeJK  time:  CPU       0.12 s  wall       0.12 s
    9     -77.9905200669      1.96e-08  
   10     -77.9905200669      1.80e-09  Convergence criterion met
 ---------------------------------------
 SCF time:   CPU 1.18s  wall 1.00s 
 Total energy in the final basis set =      -77.9905200669
Wall  1 = 1
Clock 1 = 1.1786810160
 ==================================================
                  Done GEN_SCFMAN                  
 ==================================================

Symmetry turned off temporarily

 --------------------------------------------------------------

                    Orbital Energies (a.u.)
 --------------------------------------------------------------

 Alpha MOs
 -- Occupied --
-11.243 -11.242  -0.991  -0.825  -0.643  -0.549  -0.548  -0.331
 -- Virtual --
  0.140   0.272   0.310   0.318   0.383   0.440   0.716   0.717
  0.805   0.839   0.857   0.873   1.166   1.205   1.212   1.240
  1.282   1.430   1.713   1.865   2.056   2.156   2.358   2.376
  2.527   2.608   2.916   2.945   4.459   4.702
 --------------------------------------------------------------

          Ground-State Mulliken Net Atomic Charges

     Atom                 Charge (a.u.)
  ----------------------------------------
      1 C                    -0.378020
      2 C                    -0.378020
      3 H                     0.189009
      4 H                     0.189010
      5 H                     0.189010
      6 H                     0.189009
  ----------------------------------------
  Sum of atomic charges =    -0.000000

 -----------------------------------------------------------------
                    Cartesian Multipole Moments
 -----------------------------------------------------------------
    Charge (ESU x 10^10)
                 0.0000
    Dipole Moment (Debye)
         X       0.0000      Y      -0.0000      Z      -0.0000
       Tot       0.0000
    Quadrupole Moments (Debye-Ang)
        XX     -11.5718     XY       0.0000     YY     -12.4741
        XZ       0.0000     YZ       1.0205     ZZ     -15.4688
    Octopole Moments (Debye-Ang^2)
       XXX      72.0101    XXY     -28.5074    XYY      25.8753
       YYY     -92.1909    XXZ      -0.0000    XYZ      -2.1169
       YYZ       5.0282    XZZ      32.0869    YZZ     -38.1077
       ZZZ      -0.0000
    Hexadecapole Moments (Debye-Ang^3)
      XXXX    -372.6073   XXXY     177.3989   XXYY    -137.8351
      XYYY     191.2325   YYYY    -477.9525   XXXZ       0.0001
      XXYZ       5.1687   XYYZ     -10.4300   YYYZ      18.0735
      XXZZ     -82.7733   XYZZ      79.0469   YYZZ    -101.1062
      XZZZ       0.0000   YZZZ      -1.3201   ZZZZ     -18.3614
 -----------------------------------------------------------------
drvman_main.C: 73: calling DrvMan  Calculating analytic gradient of the SCF energy
drvman.C : 218: Calculating analytic gradient of the SCF energy
drvman.C: 244: calling SCF_Grad for normal SCF gradient
 Job number = 111, Threshold = 1.00E-11
Integral type ranges set in mkLRange.C for JobNum: 11  <1-21|22-22>
Finding J and K together
 ML is being used
 Job number = 122, Threshold = 1.00E-11
Integral type ranges set in mkLRange.C for JobNum: 22  <1-21|1-21>
Total number of integrals generated =          322102
 MakeJK  time:  CPU       0.56 s  wall       0.55 s
 Gradient of SCF Energy
            1           2           3           4           5           6
    1  -0.1979815   0.1979815   0.0174162   0.0174152  -0.0174152  -0.0174162
    2  -0.0000028   0.0000028  -0.0296866   0.0296869  -0.0296869   0.0296866
    3  -0.0000004   0.0000004  -0.0091547   0.0091547  -0.0091547   0.0091547
 Max gradient component =       1.980E-01
 RMS gradient           =       6.810E-02
drvman.C: 248: out of SCF_Grad for normal SCF gradient
 Gradient time:  CPU 0.58 s  wall 0.57 s
 ------------------------------------------------------------------------------
                     drvman        : Timing summary (seconds)
 ------------------------------------------------------------------------------
     job step          cpu (% of tot)      sys (% of tot)     wall (% of tot)
 ------------------------------------------------------------------------------
 ------------------------------------------------------------------------------
   Grand Totals     0.5760E+00          0.5000E-05          0.5671E+00
 ------------------------------------------------------------------------------
drvman_main.C: 77: out of DrvMan =======================================================
            AB INITIO MOLECULAR DYNAMICS
=======================================================
Created directory /home/jcartus/scratch/qchem15788/AIMD
AIMD will take 200 BOMD steps Velocity Verlet integration
Time step = 20.00000 a.u. ( = 0.48378 fs)
Total simulation time requested = 96.755 fs
Integral threshold = 10**(-11)
SCF convergence threshold = 10**(-8)
Generating viewable xyz trajectory,
 file (in Angstroms) at AIMD/View.xyz
Choosing nuclear velocities from Maxwell-Boltzmann
Velocities sampled from Maxwell-Boltzmann at T = 298.0 K
sqrt(kT/m) and (vx,vy,vz) for each atom:
  1   2.0771e-04  -3.26e-05   3.67e-05  -1.46e-04 
  2   2.0771e-04   9.84e-06  -6.31e-05   6.39e-05 
  3   7.1671e-04   6.28e-04  -9.32e-04  -1.66e-04 
  4   7.1671e-04  -5.25e-04   7.52e-04   1.68e-04 
  5   7.1671e-04   6.38e-04  -3.41e-04   5.18e-04 
  6   7.1671e-04  -4.68e-04   5.02e-04  -5.28e-04 
T(nuclear) = 0.00374964 a.u.
v(c.o.m.) = (  6.7191e-08,  -1.1954e-05,  -3.5578e-05)
T(c.o.m.) = 3.59910e-05 a.u.
kT/2 = 0.000472 a.u.
Tx   = 0.001202 a.u.
Ty   = 0.001714 a.u.
Tz   = 0.000833 a.u.
Mean velocities (a.u.):   4.1757e-05  -7.5482e-06  -1.4969e-05
Removing c.o.m. velocity
T(nuclear) = 0.00383356 a.u.
v(c.o.m.) = (  4.3455e-21,  -4.3455e-21,   1.0864e-20)
T(c.o.m.) = 3.98016e-36 a.u.
kT   = 0.000944 a.u. = 0.59 kcal/mol
Tx   = 0.001202 a.u. = 0.75 kcal/mol
Ty   = 0.001721 a.u. = 1.08 kcal/mol
Tz   = 0.000910 a.u. = 0.57 kcal/mol
Initial velocities in m/s
  1     -7.1465e+01      9.0570e+01     -2.8990e+02 
  2      2.1472e+01     -1.2781e+02      1.7003e+02 
  3      1.3726e+03     -1.9186e+03     -2.2970e+00 
  4     -1.1486e+03      1.7661e+03      7.2913e+02 
  5      1.3951e+03     -6.2375e+02      1.4945e+03 
  6     -1.0238e+03      1.2197e+03     -7.9413e+02 
----------------------------------------------------------------------------
       Nuclear coordinates (Angst) and velocities (a.u.)
----------------------------------------------------------------------------
             x        y        z            v_x         v_y        v_z
----------------------------------------------------------------------------
1      C   -2.8303   2.4635   0.0000    -3.2667e-05   4.1400e-05  -1.3251e-04
2      C   -1.3183   2.4635  -0.0000     9.8149e-06  -5.8424e-05   7.7722e-05
3      H   -3.3463   3.3176   0.2634     6.2742e-04  -8.7699e-04  -1.0500e-06
4      H   -3.3463   1.6095  -0.2634    -5.2503e-04   8.0728e-04   3.3329e-04
5      H   -0.8023   3.3176   0.2634     6.3770e-04  -2.8512e-04   6.8314e-04
6      H   -0.8023   1.6095  -0.2634    -4.6800e-04   5.5753e-04  -3.6300e-04
----------------------------------------------------------------------------
Write nuclear velocities every 1 time steps

TIME STEP #1 (t = 0.000 a.u. = 0.00000 fs)
--------------------------------------
 Instantaneous Temperature = 134.5 K
 ----------------------------------------------------------------
             Standard Nuclear Orientation (Angstroms)
    I     Atom           X                Y                Z
 ----------------------------------------------------------------
    1      C      -2.8297278434     2.4639581696    -0.0014024548
    2      C      -1.3191240111     2.4629116510     0.0008225774
    3      H      -3.3407030147     3.3099985745     0.2638862736
    4      H      -3.3528999143     1.6163036442    -0.2603700076
    5      H      -0.7945176076     3.3162726695     0.2711273910
    6      H      -0.8062197569     1.6136704657    -0.2677391903
 ----------------------------------------------------------------
 Nuclear Repulsion Energy =    32.0326377898 hartrees
 There are        8 alpha and        8 beta electrons

                       Distance Matrix (Angstroms)
             C (  1)   C (  2)   H (  3)   H (  4)   H (  5)
   C (  2)  1.510606
   H (  3)  1.023356  2.207610
   H (  4)  1.029219  2.218380  1.773019
   H (  5)  2.223239  1.037546  2.546203  3.117323
   H (  6)  2.210997  1.027817  3.095765  2.546692  1.785880

 Applying Cartesian multipole field
    Component          Value
    ---------          -----
     (2,0,0)        1.00000E-11
     (0,2,0)        2.00000E-11
     (0,0,2)       -3.00000E-10
 Nucleus-field energy     =     0.0000000098 hartrees
 ENuRep (before)= 32.0326377898
 ENucField = 0.0000000098
 ENuRep (after) = 32.0326377996
 Job number = 2, Threshold = 1.00E-11
Integral type ranges set in mkLRange.C for JobNum: 2  <1-21|1-21>
Symmetry turned off temporarily
Symmetry turned back on
 Job number = 11, Threshold = 1.00E-11
Integral type ranges set in mkLRange.C for JobNum: 11  <1-21|22-22>
 Smallest overlap matrix eigenvalue = 1.23E-02
 Multipole matrices computed through 2nd order
 Guess from superposition of atomic densities
 Warning:  Energy on first SCF cycle will be non-variational
 SAD guess density has 16.000000 electrons
 SCF convergence criterion is 10**(-8)
 A restricted Hartree-Fock SCF calculation will be
 performed using Pulay DIIS extrapolation
 SCF converges when DIIS error is below 1.0E-08
Finding J and K together
 Job number = 22, Threshold = 1.00E-11
Integral type ranges set in mkLRange.C for JobNum: 22  <1-21|1-21>
 MakeJK  time:  CPU       0.10 s  wall       0.10 s
Fock build time:  0.10 s (CPU) 0.10 s (wall)
DIIS Errors:  Max 7.69E-01 RMS 1.14E-01

Current DIIS subspace size = 1
REM_GRID_RESTART_DIIS = 0

 ---------------------------------------
  Cycle       Energy         DIIS Error
 ---------------------------------------
    1     -78.2463900115      1.14E-01  00000
Finding J and K together
 Job number = 22, Threshold = 1.00E-11
Integral type ranges set in mkLRange.C for JobNum: 22  <1-21|1-21>
 MakeJK  time:  CPU       0.12 s  wall       0.12 s
Fock build time:  0.12 s (CPU) 0.12 s (wall)
DIIS Errors:  Max 3.95E-02 RMS 8.88E-03

Current DIIS subspace size = 2
REM_GRID_RESTART_DIIS = 0

    2     -77.9681330571      8.88E-03  00000
Finding J and K together
 Job number = 22, Threshold = 1.00E-11
Integral type ranges set in mkLRange.C for JobNum: 22  <1-21|1-21>
 MakeJK  time:  CPU       0.12 s  wall       0.12 s
Fock build time:  0.12 s (CPU) 0.12 s (wall)
DIIS Errors:  Max 1.13E-02 RMS 2.17E-03

Current DIIS subspace size = 3
REM_GRID_RESTART_DIIS = 0

    3     -77.9887231414      2.17E-03  00000
Finding J and K together
 Job number = 22, Threshold = 1.00E-11
Integral type ranges set in mkLRange.C for JobNum: 22  <1-21|1-21>
 MakeJK  time:  CPU       0.12 s  wall       0.12 s
Fock build time:  0.12 s (CPU) 0.12 s (wall)
DIIS Errors:  Max 3.89E-03 RMS 4.22E-04

Current DIIS subspace size = 4
REM_GRID_RESTART_DIIS = 0

    4     -77.9900926642      4.22E-04  00000
Finding J and K together
 Job number = 22, Threshold = 1.00E-11
Integral type ranges set in mkLRange.C for JobNum: 22  <1-21|1-21>
 MakeJK  time:  CPU       0.12 s  wall       0.12 s
Fock build time:  0.12 s (CPU) 0.12 s (wall)
DIIS Errors:  Max 8.18E-04 RMS 1.08E-04

Current DIIS subspace size = 5
REM_GRID_RESTART_DIIS = 0

    5     -77.9901330632      1.08E-04  00000
Finding J and K together
 Job number = 22, Threshold = 1.00E-11
Integral type ranges set in mkLRange.C for JobNum: 22  <1-21|1-21>
 MakeJK  time:  CPU       0.12 s  wall       0.12 s
Fock build time:  0.12 s (CPU) 0.12 s (wall)
DIIS Errors:  Max 3.41E-04 RMS 4.33E-05

Current DIIS subspace size = 6
REM_GRID_RESTART_DIIS = 0

    6     -77.9901357301      4.33E-05  00000
Finding J and K together
 Job number = 22, Threshold = 1.00E-11
Integral type ranges set in mkLRange.C for JobNum: 22  <1-21|1-21>
 MakeJK  time:  CPU       0.12 s  wall       0.12 s
Fock build time:  0.12 s (CPU) 0.12 s (wall)
DIIS Errors:  Max 5.94E-05 RMS 7.24E-06

Current DIIS subspace size = 7
REM_GRID_RESTART_DIIS = 0

    7     -77.9901361582      7.24E-06  00000
Finding J and K together
 Job number = 22, Threshold = 1.00E-11
Integral type ranges set in mkLRange.C for JobNum: 22  <1-21|1-21>
 MakeJK  time:  CPU       0.12 s  wall       0.12 s
Fock build time:  0.12 s (CPU) 0.12 s (wall)
DIIS Errors:  Max 1.38E-05 RMS 1.52E-06

Current DIIS subspace size = 8
REM_GRID_RESTART_DIIS = 0

    8     -77.9901361727      1.52E-06  00000
Finding J and K together
 Job number = 22, Threshold = 1.00E-11
Integral type ranges set in mkLRange.C for JobNum: 22  <1-21|1-21>
 MakeJK  time:  CPU       0.12 s  wall       0.12 s
Fock build time:  0.12 s (CPU) 0.12 s (wall)
DIIS Errors:  Max 7.36E-06 RMS 5.72E-07

Current DIIS subspace size = 9
REM_GRID_RESTART_DIIS = 0

    9     -77.9901361740      5.72E-07  00000
Finding J and K together
 Job number = 22, Threshold = 1.00E-11
Integral type ranges set in mkLRange.C for JobNum: 22  <1-21|1-21>
 MakeJK  time:  CPU       0.12 s  wall       0.12 s
Fock build time:  0.12 s (CPU) 0.12 s (wall)
DIIS Errors:  Max 2.05E-06 RMS 1.62E-07

Current DIIS subspace size = 10
REM_GRID_RESTART_DIIS = 0

   10     -77.9901361742      1.62E-07  00000
Finding J and K together
 Job number = 22, Threshold = 1.00E-11
Integral type ranges set in mkLRange.C for JobNum: 22  <1-21|1-21>
 MakeJK  time:  CPU       0.12 s  wall       0.12 s
Fock build time:  0.12 s (CPU) 0.12 s (wall)
DIIS Errors:  Max 8.58E-08 RMS 1.09E-08

Current DIIS subspace size = 11
REM_GRID_RESTART_DIIS = 0

   11     -77.9901361742      1.09E-08  00000
Finding J and K together
 Job number = 22, Threshold = 1.00E-11
Integral type ranges set in mkLRange.C for JobNum: 22  <1-21|1-21>
 MakeJK  time:  CPU       0.12 s  wall       0.12 s
Fock build time:  0.12 s (CPU) 0.12 s (wall)
DIIS Errors:  Max 6.41E-09 RMS 1.07E-09

Current DIIS subspace size = 12
REM_GRID_RESTART_DIIS = 0

   12     -77.9901361742      1.07E-09  00000 Convergence criterion met
 ---------------------------------------
 SCF time:  CPU 1.46 s  wall 1.46 s
 SCF   energy in the final basis set = -77.99013617
 Total energy in the final basis set = -77.99013617
drvman_main.C: 73: calling DrvMan  Calculating analytic gradient of the SCF energy
drvman.C : 218: Calculating analytic gradient of the SCF energy
drvman.C: 244: calling SCF_Grad for normal SCF gradient
 Job number = 111, Threshold = 1.00E-11
Integral type ranges set in mkLRange.C for JobNum: 11  <1-21|22-22>
 Warning:  Cost of integrals step H3 set to -832867238
 Warning:  Retrieved cost of -832867238 for integrals step H3
Finding J and K together
 ML is being used
 Job number = 122, Threshold = 1.00E-11
Integral type ranges set in mkLRange.C for JobNum: 22  <1-21|1-21>
 MakeJK  time:  CPU       0.59 s  wall       0.58 s
 Gradient of SCF Energy
            1           2           3           4           5           6
    1  -0.2021113   0.1964437   0.0213709   0.0179430  -0.0142019  -0.0194444
    2   0.0038732  -0.0067174  -0.0371892   0.0323830  -0.0256011   0.0332514
    3   0.0005650  -0.0017371  -0.0116708   0.0103929  -0.0078322   0.0102822
 Max gradient component =       2.021E-01
 RMS gradient           =       6.891E-02
drvman.C: 248: out of SCF_Grad for normal SCF gradient
 Gradient time:  CPU 0.60 s  wall 0.59 s
 ------------------------------------------------------------------------------
                     drvman        : Timing summary (seconds)
 ------------------------------------------------------------------------------
     job step          cpu (% of tot)      sys (% of tot)     wall (% of tot)
 ------------------------------------------------------------------------------
 ------------------------------------------------------------------------------
   Grand Totals     0.5960E+00          0.4000E-05          0.5884E+00
 ------------------------------------------------------------------------------
drvman_main.C: 77: out of DrvMan  Time for this dynamics step: 2.1 s (CPU) 2.1 s (wall)

TIME STEP #2 (t = 20.000 a.u. = 0.48378 fs)
--------------------------------------
 Instantaneous Temperature = 122.0 K
 ----------------------------------------------------------------
             Standard Nuclear Orientation (Angstroms)
    I     Atom           X                Y                Z
 ----------------------------------------------------------------
    1      C      -2.8271599505     2.4643588599    -0.0028103766
    2      C      -1.3218789162     2.4623583031     0.0016619635
    3      H      -3.3375283009     3.3067119460     0.2657472139
    4      H      -3.3615271520     1.6194062367    -0.2585674432
    5      H      -0.7851289242     3.3179150013     0.2797871815
    6      H      -0.8079292066     1.6140298298    -0.2732930616
 ----------------------------------------------------------------
 Nuclear Repulsion Energy =    32.0401143937 hartrees
 There are        8 alpha and        8 beta electrons

                       Distance Matrix (Angstroms)
             C (  1)   C (  2)   H (  3)   H (  4)   H (  5)
   C (  2)  1.505289
   H (  3)  1.020861  2.201253
   H (  4)  1.031942  2.222263  1.767055
   H (  5)  2.231213  1.047584  2.552463  3.132505
   H (  6)  2.207603  1.029274  3.091053  2.553646  1.791547

 Applying Cartesian multipole field
    Component          Value
    ---------          -----
     (2,0,0)        1.00000E-11
     (0,2,0)        2.00000E-11
     (0,0,2)       -3.00000E-10
 Nucleus-field energy     =     0.0000000098 hartrees
 ENuRep (before)= 32.0401143937
 ENucField = 0.0000000098
 ENuRep (after) = 32.0401144034
 Job number = 2, Threshold = 1.00E-11
Integral type ranges set in mkLRange.C for JobNum: 2  <1-21|1-21>
Symmetry turned off temporarily
Symmetry turned back on
 Job number = 11, Threshold = 1.00E-11
Integral type ranges set in mkLRange.C for JobNum: 11  <1-21|22-22>
 Smallest overlap matrix eigenvalue = 1.23E-02
 Multipole matrices computed through 2nd order
 Guess from superposition of atomic densities
 Warning:  Energy on first SCF cycle will be non-variational
 SAD guess density has 16.000000 electrons
 SCF convergence criterion is 10**(-8)
 A restricted Hartree-Fock SCF calculation will be
 performed using Pulay DIIS extrapolation
 SCF converges when DIIS error is below 1.0E-08
Finding J and K together
 Job number = 22, Threshold = 1.00E-11
Integral type ranges set in mkLRange.C for JobNum: 22  <1-21|1-21>
 MakeJK  time:  CPU       0.10 s  wall       0.10 s
Fock build time:  0.10 s (CPU) 0.10 s (wall)
DIIS Errors:  Max 7.73E-01 RMS 1.14E-01

Current DIIS subspace size = 1
REM_GRID_RESTART_DIIS = 0

 ---------------------------------------
  Cycle       Energy         DIIS Error
 ---------------------------------------
    1     -78.2464414838      1.14E-01  00000
Finding J and K together
 Job number = 22, Threshold = 1.00E-11
Integral type ranges set in mkLRange.C for JobNum: 22  <1-21|1-21>
 MakeJK  time:  CPU       0.12 s  wall       0.12 s
Fock build time:  0.12 s (CPU) 0.12 s (wall)
DIIS Errors:  Max 4.03E-02 RMS 8.87E-03

Current DIIS subspace size = 2
REM_GRID_RESTART_DIIS = 0

    2     -77.9702844145      8.87E-03  00000
Finding J and K together
 Job number = 22, Threshold = 1.00E-11
Integral type ranges set in mkLRange.C for JobNum: 22  <1-21|1-21>
 MakeJK  time:  CPU       0.12 s  wall       0.12 s
Fock build time:  0.12 s (CPU) 0.12 s (wall)
DIIS Errors:  Max 1.20E-02 RMS 2.18E-03

Current DIIS subspace size = 3
REM_GRID_RESTART_DIIS = 0

    3     -77.9908179539      2.18E-03  00000
Finding J and K together
 Job number = 22, Threshold = 1.00E-11
Integral type ranges set in mkLRange.C for JobNum: 22  <1-21|1-21>
 MakeJK  time:  CPU       0.12 s  wall       0.12 s
Fock build time:  0.12 s (CPU) 0.12 s (wall)
DIIS Errors:  Max 4.60E-03 RMS 4.95E-04

Current DIIS subspace size = 4
REM_GRID_RESTART_DIIS = 0

    4     -77.9921791963      4.95E-04  00000
Finding J and K together
 Job number = 22, Threshold = 1.00E-11
Integral type ranges set in mkLRange.C for JobNum: 22  <1-21|1-21>
 MakeJK  time:  CPU       0.12 s  wall       0.12 s
Fock build time:  0.12 s (CPU) 0.12 s (wall)
DIIS Errors:  Max 1.20E-03 RMS 1.44E-04

Current DIIS subspace size = 5
REM_GRID_RESTART_DIIS = 0

    5     -77.9922306988      1.44E-04  00000
Finding J and K together
 Job number = 22, Threshold = 1.00E-11
Integral type ranges set in mkLRange.C for JobNum: 22  <1-21|1-21>
 MakeJK  time:  CPU       0.12 s  wall       0.12 s
Fock build time:  0.12 s (CPU) 0.12 s (wall)
DIIS Errors:  Max 3.35E-04 RMS 4.34E-05

Current DIIS subspace size = 6
REM_GRID_RESTART_DIIS = 0

    6     -77.9922350344      4.34E-05  00000
Finding J and K together
 Job number = 22, Threshold = 1.00E-11
Integral type ranges set in mkLRange.C for JobNum: 22  <1-21|1-21>
 MakeJK  time:  CPU       0.12 s  wall       0.12 s
Fock build time:  0.12 s (CPU) 0.12 s (wall)
DIIS Errors:  Max 6.89E-05 RMS 7.66E-06

Current DIIS subspace size = 7
REM_GRID_RESTART_DIIS = 0

    7     -77.9922355406      7.66E-06  00000
Finding J and K together
 Job number = 22, Threshold = 1.00E-11
Integral type ranges set in mkLRange.C for JobNum: 22  <1-21|1-21>
 MakeJK  time:  CPU       0.12 s  wall       0.12 s
Fock build time:  0.12 s (CPU) 0.12 s (wall)
DIIS Errors:  Max 2.69E-05 RMS 2.35E-06

Current DIIS subspace size = 8
REM_GRID_RESTART_DIIS = 0

    8     -77.9922355598      2.35E-06  00000
Finding J and K together
 Job number = 22, Threshold = 1.00E-11
Integral type ranges set in mkLRange.C for JobNum: 22  <1-21|1-21>
 MakeJK  time:  CPU       0.12 s  wall       0.12 s
Fock build time:  0.12 s (CPU) 0.12 s (wall)
DIIS Errors:  Max 1.23E-05 RMS 9.61E-07

Current DIIS subspace size = 9
REM_GRID_RESTART_DIIS = 0

    9     -77.9922355631      9.61E-07  00000
Finding J and K together
 Job number = 22, Threshold = 1.00E-11
Integral type ranges set in mkLRange.C for JobNum: 22  <1-21|1-21>
 MakeJK  time:  CPU       0.12 s  wall       0.12 s
Fock build time:  0.12 s (CPU) 0.12 s (wall)
DIIS Errors:  Max 1.71E-06 RMS 1.44E-07

Current DIIS subspace size = 10
REM_GRID_RESTART_DIIS = 0

   10     -77.9922355637      1.44E-07  00000
Finding J and K together
 Job number = 22, Threshold = 1.00E-11
Integral type ranges set in mkLRange.C for JobNum: 22  <1-21|1-21>
 MakeJK  time:  CPU       0.12 s  wall       0.12 s
Fock build time:  0.12 s (CPU) 0.12 s (wall)
DIIS Errors:  Max 7.56E-08 RMS 1.02E-08

Current DIIS subspace size = 11
REM_GRID_RESTART_DIIS = 0

   11     -77.9922355637      1.02E-08  00000
Finding J and K together
 Job number = 22, Threshold = 1.00E-11
Integral type ranges set in mkLRange.C for JobNum: 22  <1-21|1-21>
 MakeJK  time:  CPU       0.12 s  wall       0.12 s
Fock build time:  0.12 s (CPU) 0.12 s (wall)
DIIS Errors:  Max 6.97E-09 RMS 1.21E-09

Current DIIS subspace size = 12
REM_GRID_RESTART_DIIS = 0

   12     -77.9922355637      1.21E-09  00000 Convergence criterion met
 ---------------------------------------
 SCF time:  CPU 1.46 s  wall 1.46 s
 SCF   energy in the final basis set = -77.99223556
 Total energy in the final basis set = -77.99223556
drvman_main.C: 73: calling DrvMan  Calculating analytic gradient of the SCF energy
drvman.C : 218: Calculating analytic gradient of the SCF energy
drvman.C: 244: calling SCF_Grad for normal SCF gradient
 Job number = 111, Threshold = 1.00E-11
Integral type ranges set in mkLRange.C for JobNum: 11  <1-21|22-22>
Finding J and K together
 ML is being used
 Job number = 122, Threshold = 1.00E-11
Integral type ranges set in mkLRange.C for JobNum: 22  <1-21|1-21>
 MakeJK  time:  CPU       0.50 s  wall       0.49 s
 Gradient of SCF Energy
            1           2           3           4           5           6
    1  -0.1989761   0.1885480   0.0223045   0.0157565  -0.0089446  -0.0186884
    2   0.0071572  -0.0119484  -0.0397001   0.0306783  -0.0184243   0.0322373
    3   0.0009464  -0.0031049  -0.0126663   0.0102877  -0.0054427   0.0099798
 Max gradient component =       1.990E-01
 RMS gradient           =       6.700E-02
drvman.C: 248: out of SCF_Grad for normal SCF gradient
 Gradient time:  CPU 0.51 s  wall 0.50 s
 ------------------------------------------------------------------------------
                     drvman        : Timing summary (seconds)
 ------------------------------------------------------------------------------
     job step          cpu (% of tot)      sys (% of tot)     wall (% of tot)
 ------------------------------------------------------------------------------
 ------------------------------------------------------------------------------
   Grand Totals     0.5120E+00          0.6000E-05          0.5030E+00
 ------------------------------------------------------------------------------
drvman_main.C: 77: out of DrvMan  Time for this dynamics step: 2.0 s (CPU) 2.1 s (wall)

TIME STEP #3 (t = 40.000 a.u. = 0.96755 fs)
--------------------------------------
 Instantaneous Temperature = 194.8 K
 ----------------------------------------------------------------
             Standard Nuclear Orientation (Angstroms)
    I     Atom           X                Y                Z
 ----------------------------------------------------------------
    1      C      -2.8226666588     2.4646902934    -0.0042274563
    2      C      -1.3264583123     2.4619205741     0.0025313946
    3      H      -3.3369234299     3.3079994120     0.2690675160
    4      H      -3.3719697969     1.6189741956    -0.2579501900
    5      H      -0.7747096789     3.3216801101     0.2890740592
    6      H      -0.8074854522     1.6106749326    -0.2799967690
 ----------------------------------------------------------------
 Nuclear Repulsion Energy =    32.0116393073 hartrees
 There are        8 alpha and        8 beta electrons

                       Distance Matrix (Angstroms)
             C (  1)   C (  2)   H (  3)   H (  4)   H (  5)
   C (  2)  1.496226
   H (  3)  1.024851  2.197467
   H (  4)  1.039877  2.227673  1.769684
   H (  5)  2.239327  1.060999  2.562328  3.153443
   H (  6)  2.205980  1.036231  3.095228  2.564593  1.803456

 Applying Cartesian multipole field
    Component          Value
    ---------          -----
     (2,0,0)        1.00000E-11
     (0,2,0)        2.00000E-11
     (0,0,2)       -3.00000E-10
 Nucleus-field energy     =     0.0000000098 hartrees
 ENuRep (before)= 32.0116393073
 ENucField = 0.0000000098
 ENuRep (after) = 32.0116393170
 Job number = 2, Threshold = 1.00E-11
Integral type ranges set in mkLRange.C for JobNum: 2  <1-21|1-21>
Symmetry turned off temporarily
Symmetry turned back on
 Job number = 11, Threshold = 1.00E-11
Integral type ranges set in mkLRange.C for JobNum: 11  <1-21|22-22>
 Smallest overlap matrix eigenvalue = 1.21E-02
 Multipole matrices computed through 2nd order
 Guess from superposition of atomic densities
 Warning:  Energy on first SCF cycle will be non-variational
 SAD guess density has 16.000000 electrons
 SCF convergence criterion is 10**(-8)
 A restricted Hartree-Fock SCF calculation will be
 performed using Pulay DIIS extrapolation
 SCF converges when DIIS error is below 1.0E-08
Finding J and K together
 Job number = 22, Threshold = 1.00E-11
Integral type ranges set in mkLRange.C for JobNum: 22  <1-21|1-21>
 MakeJK  time:  CPU       0.10 s  wall       0.10 s
Fock build time:  0.10 s (CPU) 0.10 s (wall)
DIIS Errors:  Max 7.69E-01 RMS 1.14E-01

Current DIIS subspace size = 1
REM_GRID_RESTART_DIIS = 0

 ---------------------------------------
  Cycle       Energy         DIIS Error
 ---------------------------------------
    1     -78.2383014928      1.14E-01  00000
Finding J and K together
 Job number = 22, Threshold = 1.00E-11
Integral type ranges set in mkLRange.C for JobNum: 22  <1-21|1-21>
 MakeJK  time:  CPU       0.12 s  wall       0.12 s
Fock build time:  0.12 s (CPU) 0.12 s (wall)
DIIS Errors:  Max 4.08E-02 RMS 8.84E-03

Current DIIS subspace size = 2
REM_GRID_RESTART_DIIS = 0

    2     -77.9746621730      8.84E-03  00000
Finding J and K together
 Job number = 22, Threshold = 1.00E-11
Integral type ranges set in mkLRange.C for JobNum: 22  <1-21|1-21>
 MakeJK  time:  CPU       0.12 s  wall       0.12 s
Fock build time:  0.12 s (CPU) 0.12 s (wall)
DIIS Errors:  Max 1.25E-02 RMS 2.18E-03

Current DIIS subspace size = 3
REM_GRID_RESTART_DIIS = 0

    3     -77.9950459847      2.18E-03  00000
Finding J and K together
 Job number = 22, Threshold = 1.00E-11
Integral type ranges set in mkLRange.C for JobNum: 22  <1-21|1-21>
 MakeJK  time:  CPU       0.12 s  wall       0.12 s
Fock build time:  0.12 s (CPU) 0.12 s (wall)
DIIS Errors:  Max 5.00E-03 RMS 5.51E-04

Current DIIS subspace size = 4
REM_GRID_RESTART_DIIS = 0

    4     -77.9963939469      5.51E-04  00000
Finding J and K together
 Job number = 22, Threshold = 1.00E-11
Integral type ranges set in mkLRange.C for JobNum: 22  <1-21|1-21>
 MakeJK  time:  CPU       0.12 s  wall       0.12 s
Fock build time:  0.12 s (CPU) 0.12 s (wall)
DIIS Errors:  Max 1.35E-03 RMS 1.58E-04

Current DIIS subspace size = 5
REM_GRID_RESTART_DIIS = 0

    5     -77.9964559223      1.58E-04  00000
Finding J and K together
 Job number = 22, Threshold = 1.00E-11
Integral type ranges set in mkLRange.C for JobNum: 22  <1-21|1-21>
 MakeJK  time:  CPU       0.12 s  wall       0.12 s
Fock build time:  0.12 s (CPU) 0.12 s (wall)
DIIS Errors:  Max 3.17E-04 RMS 4.07E-05

Current DIIS subspace size = 6
REM_GRID_RESTART_DIIS = 0

    6     -77.9964610794      4.07E-05  00000
Finding J and K together
 Job number = 22, Threshold = 1.00E-11
Integral type ranges set in mkLRange.C for JobNum: 22  <1-21|1-21>
 MakeJK  time:  CPU       0.12 s  wall       0.12 s
Fock build time:  0.12 s (CPU) 0.12 s (wall)
DIIS Errors:  Max 8.01E-05 RMS 8.39E-06

Current DIIS subspace size = 7
REM_GRID_RESTART_DIIS = 0

    7     -77.9964615755      8.39E-06  00000
Finding J and K together
 Job number = 22, Threshold = 1.00E-11
Integral type ranges set in mkLRange.C for JobNum: 22  <1-21|1-21>
 MakeJK  time:  CPU       0.12 s  wall       0.12 s
Fock build time:  0.12 s (CPU) 0.12 s (wall)
DIIS Errors:  Max 3.46E-05 RMS 2.93E-06

Current DIIS subspace size = 8
REM_GRID_RESTART_DIIS = 0

    8     -77.9964616000      2.93E-06  00000
Finding J and K together
 Job number = 22, Threshold = 1.00E-11
Integral type ranges set in mkLRange.C for JobNum: 22  <1-21|1-21>
 MakeJK  time:  CPU       0.12 s  wall       0.12 s
Fock build time:  0.12 s (CPU) 0.12 s (wall)
DIIS Errors:  Max 1.44E-05 RMS 1.14E-06

Current DIIS subspace size = 9
REM_GRID_RESTART_DIIS = 0

    9     -77.9964616052      1.14E-06  00000
Finding J and K together
 Job number = 22, Threshold = 1.00E-11
Integral type ranges set in mkLRange.C for JobNum: 22  <1-21|1-21>
 MakeJK  time:  CPU       0.12 s  wall       0.12 s
Fock build time:  0.12 s (CPU) 0.12 s (wall)
DIIS Errors:  Max 1.43E-06 RMS 1.26E-07

Current DIIS subspace size = 10
REM_GRID_RESTART_DIIS = 0

   10     -77.9964616061      1.26E-07  00000
Finding J and K together
 Job number = 22, Threshold = 1.00E-11
Integral type ranges set in mkLRange.C for JobNum: 22  <1-21|1-21>
 MakeJK  time:  CPU       0.12 s  wall       0.12 s
Fock build time:  0.12 s (CPU) 0.12 s (wall)
DIIS Errors:  Max 6.93E-08 RMS 9.98E-09

Current DIIS subspace size = 11
REM_GRID_RESTART_DIIS = 0

   11     -77.9964616062      9.98E-09  00000 Convergence criterion met
 ---------------------------------------
 SCF time:  CPU 1.34 s  wall 1.34 s
 SCF   energy in the final basis set = -77.99646161
 Total energy in the final basis set = -77.99646161
drvman_main.C: 73: calling DrvMan  Calculating analytic gradient of the SCF energy
drvman.C : 218: Calculating analytic gradient of the SCF energy
drvman.C: 244: calling SCF_Grad for normal SCF gradient
 Job number = 111, Threshold = 1.00E-11
Integral type ranges set in mkLRange.C for JobNum: 11  <1-21|22-22>
Finding J and K together
 ML is being used
 Job number = 122, Threshold = 1.00E-11
Integral type ranges set in mkLRange.C for JobNum: 22  <1-21|1-21>
 MakeJK  time:  CPU       0.51 s  wall       0.50 s
 Gradient of SCF Energy
            1           2           3           4           5           6
    1  -0.1883145   0.1750040   0.0199491   0.0110157  -0.0023784  -0.0152760
    2   0.0088862  -0.0145918  -0.0367290   0.0250450  -0.0095075   0.0268971
    3   0.0007468  -0.0037097  -0.0119039   0.0090069  -0.0023652   0.0082251
 Max gradient component =       1.883E-01
 RMS gradient           =       6.247E-02
drvman.C: 248: out of SCF_Grad for normal SCF gradient
 Gradient time:  CPU 0.52 s  wall 0.51 s
 ------------------------------------------------------------------------------
                     drvman        : Timing summary (seconds)
 ------------------------------------------------------------------------------
     job step          cpu (% of tot)      sys (% of tot)     wall (% of tot)
 ------------------------------------------------------------------------------
 ------------------------------------------------------------------------------
   Grand Totals     0.5200E+00          0.2000E-05          0.5099E+00
 ------------------------------------------------------------------------------
drvman_main.C: 77: out of DrvMan  Time for this dynamics step: 1.9 s (CPU) 1.9 s (wall)

TIME STEP #4 (t = 60.000 a.u. = 1.45133 fs)
--------------------------------------
 Instantaneous Temperature = 340.9 K
 ----------------------------------------------------------------
             Standard Nuclear Orientation (Angstroms)
    I     Atom           X                Y                Z
 ----------------------------------------------------------------
    1      C      -2.8163511355     2.4649357389    -0.0056517622
    2      C      -1.3327311404     2.4616240434     0.0034367231
    3      H      -3.3386170246     3.3135186574     0.2737593366
    4      H      -3.3836816310     1.6156565659    -0.2583706748
    5      H      -0.7640164057     3.3265406330     0.2986334415
    6      H      -0.8052816581     1.6042210539    -0.2876481424
 ----------------------------------------------------------------
 Nuclear Repulsion Energy =    31.9612728230 hartrees
 There are        8 alpha and        8 beta electrons

                       Distance Matrix (Angstroms)
             C (  1)   C (  2)   H (  3)   H (  4)   H (  5)
   C (  2)  1.483652
   H (  3)  1.034855  2.195991
   H (  4)  1.052143  2.233966  1.779868
   H (  5)  2.246560  1.076410  2.574754  3.178053
   H (  6)  2.205618  1.047890  3.107196  2.578592  1.819839

 Applying Cartesian multipole field
    Component          Value
    ---------          -----
     (2,0,0)        1.00000E-11
     (0,2,0)        2.00000E-11
     (0,0,2)       -3.00000E-10
 Nucleus-field energy     =     0.0000000097 hartrees
 ENuRep (before)= 31.9612728230
 ENucField = 0.0000000097
 ENuRep (after) = 31.9612728327
 Job number = 2, Threshold = 1.00E-11
Integral type ranges set in mkLRange.C for JobNum: 2  <1-21|1-21>
Symmetry turned off temporarily
Symmetry turned back on
 Job number = 11, Threshold = 1.00E-11
Integral type ranges set in mkLRange.C for JobNum: 11  <1-21|22-22>
 Smallest overlap matrix eigenvalue = 1.19E-02
 Multipole matrices computed through 2nd order
 Guess from superposition of atomic densities
 Warning:  Energy on first SCF cycle will be non-variational
 SAD guess density has 16.000000 electrons
 SCF convergence criterion is 10**(-8)
 A restricted Hartree-Fock SCF calculation will be
 performed using Pulay DIIS extrapolation
 SCF converges when DIIS error is below 1.0E-08
Finding J and K together
 Job number = 22, Threshold = 1.00E-11
Integral type ranges set in mkLRange.C for JobNum: 22  <1-21|1-21>
 MakeJK  time:  CPU       0.10 s  wall       0.10 s
Fock build time:  0.10 s (CPU) 0.10 s (wall)
DIIS Errors:  Max 7.59E-01 RMS 1.13E-01

Current DIIS subspace size = 1
REM_GRID_RESTART_DIIS = 0

 ---------------------------------------
  Cycle       Energy         DIIS Error
 ---------------------------------------
    1     -78.2242134049      1.13E-01  00000
Finding J and K together
 Job number = 22, Threshold = 1.00E-11
Integral type ranges set in mkLRange.C for JobNum: 22  <1-21|1-21>
 MakeJK  time:  CPU       0.12 s  wall       0.12 s
Fock build time:  0.12 s (CPU) 0.12 s (wall)
DIIS Errors:  Max 4.12E-02 RMS 8.78E-03

Current DIIS subspace size = 2
REM_GRID_RESTART_DIIS = 0

    2     -77.9802546840      8.78E-03  00000
Finding J and K together
 Job number = 22, Threshold = 1.00E-11
Integral type ranges set in mkLRange.C for JobNum: 22  <1-21|1-21>
 MakeJK  time:  CPU       0.12 s  wall       0.12 s
Fock build time:  0.12 s (CPU) 0.12 s (wall)
DIIS Errors:  Max 1.28E-02 RMS 2.17E-03

Current DIIS subspace size = 3
REM_GRID_RESTART_DIIS = 0

    3     -78.0004204137      2.17E-03  00000
Finding J and K together
 Job number = 22, Threshold = 1.00E-11
Integral type ranges set in mkLRange.C for JobNum: 22  <1-21|1-21>
 MakeJK  time:  CPU       0.12 s  wall       0.12 s
Fock build time:  0.12 s (CPU) 0.12 s (wall)
DIIS Errors:  Max 5.08E-03 RMS 5.71E-04

Current DIIS subspace size = 4
REM_GRID_RESTART_DIIS = 0

    4     -78.0017534752      5.71E-04  00000
Finding J and K together
 Job number = 22, Threshold = 1.00E-11
Integral type ranges set in mkLRange.C for JobNum: 22  <1-21|1-21>
 MakeJK  time:  CPU       0.12 s  wall       0.12 s
Fock build time:  0.12 s (CPU) 0.12 s (wall)
DIIS Errors:  Max 1.34E-03 RMS 1.57E-04

Current DIIS subspace size = 5
REM_GRID_RESTART_DIIS = 0

    5     -78.0018192317      1.57E-04  00000
Finding J and K together
 Job number = 22, Threshold = 1.00E-11
Integral type ranges set in mkLRange.C for JobNum: 22  <1-21|1-21>
 MakeJK  time:  CPU       0.12 s  wall       0.12 s
Fock build time:  0.12 s (CPU) 0.12 s (wall)
DIIS Errors:  Max 3.02E-04 RMS 3.91E-05

Current DIIS subspace size = 6
REM_GRID_RESTART_DIIS = 0

    6     -78.0018243663      3.91E-05  00000
Finding J and K together
 Job number = 22, Threshold = 1.00E-11
Integral type ranges set in mkLRange.C for JobNum: 22  <1-21|1-21>
 MakeJK  time:  CPU       0.12 s  wall       0.12 s
Fock build time:  0.12 s (CPU) 0.12 s (wall)
DIIS Errors:  Max 8.49E-05 RMS 8.83E-06

Current DIIS subspace size = 7
REM_GRID_RESTART_DIIS = 0

    7     -78.0018248414      8.83E-06  00000
Finding J and K together
 Job number = 22, Threshold = 1.00E-11
Integral type ranges set in mkLRange.C for JobNum: 22  <1-21|1-21>
 MakeJK  time:  CPU       0.12 s  wall       0.12 s
Fock build time:  0.12 s (CPU) 0.12 s (wall)
DIIS Errors:  Max 3.68E-05 RMS 3.13E-06

Current DIIS subspace size = 8
REM_GRID_RESTART_DIIS = 0

    8     -78.0018248688      3.13E-06  00000
Finding J and K together
 Job number = 22, Threshold = 1.00E-11
Integral type ranges set in mkLRange.C for JobNum: 22  <1-21|1-21>
 MakeJK  time:  CPU       0.12 s  wall       0.12 s
Fock build time:  0.12 s (CPU) 0.12 s (wall)
DIIS Errors:  Max 1.44E-05 RMS 1.15E-06

Current DIIS subspace size = 9
REM_GRID_RESTART_DIIS = 0

    9     -78.0018248747      1.15E-06  00000
Finding J and K together
 Job number = 22, Threshold = 1.00E-11
Integral type ranges set in mkLRange.C for JobNum: 22  <1-21|1-21>
 MakeJK  time:  CPU       0.12 s  wall       0.12 s
Fock build time:  0.12 s (CPU) 0.12 s (wall)
DIIS Errors:  Max 1.29E-06 RMS 1.18E-07

Current DIIS subspace size = 10
REM_GRID_RESTART_DIIS = 0

   10     -78.0018248756      1.18E-07  00000
Finding J and K together
 Job number = 22, Threshold = 1.00E-11
Integral type ranges set in mkLRange.C for JobNum: 22  <1-21|1-21>
 MakeJK  time:  CPU       0.12 s  wall       0.12 s
Fock build time:  0.12 s (CPU) 0.12 s (wall)
DIIS Errors:  Max 6.23E-08 RMS 9.83E-09

Current DIIS subspace size = 11
REM_GRID_RESTART_DIIS = 0

   11     -78.0018248756      9.83E-09  00000 Convergence criterion met
 ---------------------------------------
 SCF time:  CPU 1.33 s  wall 1.33 s
 SCF   energy in the final basis set = -78.00182488
 Total energy in the final basis set = -78.00182488
drvman_main.C: 73: calling DrvMan  Calculating analytic gradient of the SCF energy
drvman.C : 218: Calculating analytic gradient of the SCF energy
drvman.C: 244: calling SCF_Grad for normal SCF gradient
 Job number = 111, Threshold = 1.00E-11
Integral type ranges set in mkLRange.C for JobNum: 11  <1-21|22-22>
Finding J and K together
 ML is being used
 Job number = 122, Threshold = 1.00E-11
Integral type ranges set in mkLRange.C for JobNum: 22  <1-21|1-21>
 MakeJK  time:  CPU       0.50 s  wall       0.49 s
 Gradient of SCF Energy
            1           2           3           4           5           6
    1  -0.1709450   0.1569998   0.0147288   0.0043454   0.0046956  -0.0098246
    2   0.0086365  -0.0144195  -0.0290387   0.0166780  -0.0002155   0.0183591
    3  -0.0002308  -0.0034196  -0.0095493   0.0069253   0.0009706   0.0053038
 Max gradient component =       1.709E-01
 RMS gradient           =       5.585E-02
drvman.C: 248: out of SCF_Grad for normal SCF gradient
 Gradient time:  CPU 0.51 s  wall 0.50 s
 ------------------------------------------------------------------------------
                     drvman        : Timing summary (seconds)
 ------------------------------------------------------------------------------
     job step          cpu (% of tot)      sys (% of tot)     wall (% of tot)
 ------------------------------------------------------------------------------
 ------------------------------------------------------------------------------
   Grand Totals     0.5080E+00          0.3000E-05          0.5011E+00
 ------------------------------------------------------------------------------
drvman_main.C: 77: out of DrvMan  Time for this dynamics step: 1.9 s (CPU) 1.9 s (wall)

TIME STEP #5 (t = 80.000 a.u. = 1.93511 fs)
--------------------------------------
 Instantaneous Temperature = 526.4 K
 ----------------------------------------------------------------
             Standard Nuclear Orientation (Angstroms)
    I     Atom           X                Y                Z
 ----------------------------------------------------------------
    1      C      -2.8083814568     2.4650976125    -0.0070738345
    2      C      -1.3405231822     2.4614670432     0.0043751411
    3      H      -3.3420076157     3.3223836364     0.2795513971
    4      H      -3.3958941275     1.6104173559    -0.2595890657
    5      H      -0.7538641474     3.3314259795     0.3080809937
    6      H      -0.8019459107     1.5956519109    -0.2959106043
 ----------------------------------------------------------------
 Nuclear Repulsion Energy =    31.9088162301 hartrees
 There are        8 alpha and        8 beta electrons

                       Distance Matrix (Angstroms)
             C (  1)   C (  2)   H (  3)   H (  4)   H (  5)
   C (  2)  1.467907
   H (  3)  1.049691  2.196096
   H (  4)  1.067433  2.240204  1.795663
   H (  5)  2.251863  1.092353  2.588317  3.203817
   H (  6)  2.205708  1.062955  3.124848  2.594245  1.838486

 Applying Cartesian multipole field
    Component          Value
    ---------          -----
     (2,0,0)        1.00000E-11
     (0,2,0)        2.00000E-11
     (0,0,2)       -3.00000E-10
 Nucleus-field energy     =     0.0000000097 hartrees
 ENuRep (before)= 31.9088162301
 ENucField = 0.0000000097
 ENuRep (after) = 31.9088162398
 Job number = 2, Threshold = 1.00E-11
Integral type ranges set in mkLRange.C for JobNum: 2  <1-21|1-21>
Symmetry turned off temporarily
Symmetry turned back on
 Job number = 11, Threshold = 1.00E-11
Integral type ranges set in mkLRange.C for JobNum: 11  <1-21|22-22>
 Smallest overlap matrix eigenvalue = 1.16E-02
 Multipole matrices computed through 2nd order
 Guess from superposition of atomic densities
 Warning:  Energy on first SCF cycle will be non-variational
 SAD guess density has 16.000000 electrons
 SCF convergence criterion is 10**(-8)
 A restricted Hartree-Fock SCF calculation will be
 performed using Pulay DIIS extrapolation
 SCF converges when DIIS error is below 1.0E-08
Finding J and K together
 Job number = 22, Threshold = 1.00E-11
Integral type ranges set in mkLRange.C for JobNum: 22  <1-21|1-21>
 MakeJK  time:  CPU       0.10 s  wall       0.10 s
Fock build time:  0.10 s (CPU) 0.10 s (wall)
DIIS Errors:  Max 7.44E-01 RMS 1.12E-01

Current DIIS subspace size = 1
REM_GRID_RESTART_DIIS = 0

 ---------------------------------------
  Cycle       Energy         DIIS Error
 ---------------------------------------
    1     -78.2075349232      1.12E-01  00000
Finding J and K together
 Job number = 22, Threshold = 1.00E-11
Integral type ranges set in mkLRange.C for JobNum: 22  <1-21|1-21>
 MakeJK  time:  CPU       0.12 s  wall       0.12 s
Fock build time:  0.12 s (CPU) 0.12 s (wall)
DIIS Errors:  Max 4.13E-02 RMS 8.70E-03

Current DIIS subspace size = 2
REM_GRID_RESTART_DIIS = 0

    2     -77.9858373052      8.70E-03  00000
Finding J and K together
 Job number = 22, Threshold = 1.00E-11
Integral type ranges set in mkLRange.C for JobNum: 22  <1-21|1-21>
 MakeJK  time:  CPU       0.12 s  wall       0.12 s
Fock build time:  0.12 s (CPU) 0.12 s (wall)
DIIS Errors:  Max 1.30E-02 RMS 2.16E-03

Current DIIS subspace size = 3
REM_GRID_RESTART_DIIS = 0

    3     -78.0057545867      2.16E-03  00000
Finding J and K together
 Job number = 22, Threshold = 1.00E-11
Integral type ranges set in mkLRange.C for JobNum: 22  <1-21|1-21>
 MakeJK  time:  CPU       0.12 s  wall       0.12 s
Fock build time:  0.12 s (CPU) 0.12 s (wall)
DIIS Errors:  Max 4.88E-03 RMS 5.55E-04

Current DIIS subspace size = 4
REM_GRID_RESTART_DIIS = 0

    4     -78.0070739935      5.55E-04  00000
Finding J and K together
 Job number = 22, Threshold = 1.00E-11
Integral type ranges set in mkLRange.C for JobNum: 22  <1-21|1-21>
 MakeJK  time:  CPU       0.12 s  wall       0.12 s
Fock build time:  0.12 s (CPU) 0.12 s (wall)
DIIS Errors:  Max 1.25E-03 RMS 1.49E-04

Current DIIS subspace size = 5
REM_GRID_RESTART_DIIS = 0

    5     -78.0071363466      1.49E-04  00000
Finding J and K together
 Job number = 22, Threshold = 1.00E-11
Integral type ranges set in mkLRange.C for JobNum: 22  <1-21|1-21>
 MakeJK  time:  CPU       0.12 s  wall       0.12 s
Fock build time:  0.12 s (CPU) 0.12 s (wall)
DIIS Errors:  Max 2.92E-04 RMS 3.81E-05

Current DIIS subspace size = 6
REM_GRID_RESTART_DIIS = 0

    6     -78.0071409588      3.81E-05  00000
Finding J and K together
 Job number = 22, Threshold = 1.00E-11
Integral type ranges set in mkLRange.C for JobNum: 22  <1-21|1-21>
 MakeJK  time:  CPU       0.12 s  wall       0.12 s
Fock build time:  0.12 s (CPU) 0.12 s (wall)
DIIS Errors:  Max 8.33E-05 RMS 8.88E-06

Current DIIS subspace size = 7
REM_GRID_RESTART_DIIS = 0

    7     -78.0071414031      8.88E-06  00000
Finding J and K together
 Job number = 22, Threshold = 1.00E-11
Integral type ranges set in mkLRange.C for JobNum: 22  <1-21|1-21>
 MakeJK  time:  CPU       0.12 s  wall       0.12 s
Fock build time:  0.12 s (CPU) 0.12 s (wall)
DIIS Errors:  Max 3.43E-05 RMS 3.00E-06

Current DIIS subspace size = 8
REM_GRID_RESTART_DIIS = 0

    8     -78.0071414297      3.00E-06  00000
Finding J and K together
 Job number = 22, Threshold = 1.00E-11
Integral type ranges set in mkLRange.C for JobNum: 22  <1-21|1-21>
 MakeJK  time:  CPU       0.12 s  wall       0.12 s
Fock build time:  0.12 s (CPU) 0.12 s (wall)
DIIS Errors:  Max 1.32E-05 RMS 1.07E-06

Current DIIS subspace size = 9
REM_GRID_RESTART_DIIS = 0

    9     -78.0071414351      1.07E-06  00000
Finding J and K together
 Job number = 22, Threshold = 1.00E-11
Integral type ranges set in mkLRange.C for JobNum: 22  <1-21|1-21>
 MakeJK  time:  CPU       0.12 s  wall       0.12 s
Fock build time:  0.12 s (CPU) 0.12 s (wall)
DIIS Errors:  Max 1.24E-06 RMS 1.15E-07

Current DIIS subspace size = 10
REM_GRID_RESTART_DIIS = 0

   10     -78.0071414359      1.15E-07  00000
Finding J and K together
 Job number = 22, Threshold = 1.00E-11
Integral type ranges set in mkLRange.C for JobNum: 22  <1-21|1-21>
 MakeJK  time:  CPU       0.12 s  wall       0.12 s
Fock build time:  0.12 s (CPU) 0.12 s (wall)
DIIS Errors:  Max 5.36E-08 RMS 9.71E-09

Current DIIS subspace size = 11
REM_GRID_RESTART_DIIS = 0

   11     -78.0071414359      9.71E-09  00000 Convergence criterion met
 ---------------------------------------
 SCF time:  CPU 1.33 s  wall 1.33 s
 SCF   energy in the final basis set = -78.00714144
 Total energy in the final basis set = -78.00714144
drvman_main.C: 73: calling DrvMan  Calculating analytic gradient of the SCF energy
drvman.C : 218: Calculating analytic gradient of the SCF energy
drvman.C: 244: calling SCF_Grad for normal SCF gradient
 Job number = 111, Threshold = 1.00E-11
Integral type ranges set in mkLRange.C for JobNum: 11  <1-21|22-22>
Finding J and K together
 ML is being used
 Job number = 122, Threshold = 1.00E-11
Integral type ranges set in mkLRange.C for JobNum: 22  <1-21|1-21>
 MakeJK  time:  CPU       0.58 s  wall       0.58 s
 Gradient of SCF Energy
            1           2           3           4           5           6
    1  -0.1483989   0.1358170   0.0075948  -0.0033751   0.0115830  -0.0032207
    2   0.0066218  -0.0119394  -0.0183084   0.0070601   0.0083704   0.0081954
    3  -0.0019236  -0.0023556  -0.0060938   0.0044888   0.0041894   0.0016949
 Max gradient component =       1.484E-01
 RMS gradient           =       4.800E-02
drvman.C: 248: out of SCF_Grad for normal SCF gradient
 Gradient time:  CPU 0.60 s  wall 0.59 s
 ------------------------------------------------------------------------------
                     drvman        : Timing summary (seconds)
 ------------------------------------------------------------------------------
     job step          cpu (% of tot)      sys (% of tot)     wall (% of tot)
 ------------------------------------------------------------------------------
 ------------------------------------------------------------------------------
   Grand Totals     0.5960E+00          0.4000E-05          0.5888E+00
 ------------------------------------------------------------------------------
drvman_main.C: 77: out of DrvMan  Time for this dynamics step: 2.0 s (CPU) 2.0 s (wall)

TIME STEP #6 (t = 100.000 a.u. = 2.41888 fs)
--------------------------------------
 Instantaneous Temperature = 711.0 K
 ----------------------------------------------------------------
             Standard Nuclear Orientation (Angstroms)
    I     Atom           X                Y                Z
 ----------------------------------------------------------------
    1      C      -2.7989757911     2.4651954101    -0.0084772927
    2      C      -1.3496294613     2.4614255748     0.0053363533
    3      H      -3.3462732499     3.3333580390     0.2860455666
    4      H      -3.4077177552     1.6043647032    -0.2613246385
    5      H      -0.7450464359     3.3353469213     0.3170458591
    6      H      -0.7982390879     1.5861385200    -0.3043683445
 ----------------------------------------------------------------
 Nuclear Repulsion Energy =    31.8755476819 hartrees
 There are        8 alpha and        8 beta electrons

                       Distance Matrix (Angstroms)
             C (  1)   C (  2)   H (  3)   H (  4)   H (  5)
   C (  2)  1.449417
   H (  3)  1.067701  2.196736
   H (  4)  1.084218  2.245304  1.814609
   H (  5)  2.254275  1.107439  2.601412  3.228100
   H (  6)  2.205275  1.079850  3.145448  2.609897  1.857072

 Applying Cartesian multipole field
    Component          Value
    ---------          -----
     (2,0,0)        1.00000E-11
     (0,2,0)        2.00000E-11
     (0,0,2)       -3.00000E-10
 Nucleus-field energy     =     0.0000000097 hartrees
 ENuRep (before)= 31.8755476819
 ENucField = 0.0000000097
 ENuRep (after) = 31.8755476916
 Job number = 2, Threshold = 1.00E-11
Integral type ranges set in mkLRange.C for JobNum: 2  <1-21|1-21>
Symmetry turned off temporarily
Symmetry turned back on
 Job number = 11, Threshold = 1.00E-11
Integral type ranges set in mkLRange.C for JobNum: 11  <1-21|22-22>
 Smallest overlap matrix eigenvalue = 1.11E-02
 Multipole matrices computed through 2nd order
 Guess from superposition of atomic densities
 Warning:  Energy on first SCF cycle will be non-variational
 SAD guess density has 16.000000 electrons
 SCF convergence criterion is 10**(-8)
 A restricted Hartree-Fock SCF calculation will be
 performed using Pulay DIIS extrapolation
 SCF converges when DIIS error is below 1.0E-08
Finding J and K together
 Job number = 22, Threshold = 1.00E-11
Integral type ranges set in mkLRange.C for JobNum: 22  <1-21|1-21>
 MakeJK  time:  CPU       0.10 s  wall       0.10 s
Fock build time:  0.10 s (CPU) 0.10 s (wall)
DIIS Errors:  Max 7.27E-01 RMS 1.11E-01

Current DIIS subspace size = 1
REM_GRID_RESTART_DIIS = 0

 ---------------------------------------
  Cycle       Energy         DIIS Error
 ---------------------------------------
    1     -78.1922293692      1.11E-01  00000
Finding J and K together
 Job number = 22, Threshold = 1.00E-11
Integral type ranges set in mkLRange.C for JobNum: 22  <1-21|1-21>
 MakeJK  time:  CPU       0.12 s  wall       0.12 s
Fock build time:  0.12 s (CPU) 0.12 s (wall)
DIIS Errors:  Max 4.12E-02 RMS 8.64E-03

Current DIIS subspace size = 2
REM_GRID_RESTART_DIIS = 0

    2     -77.9904535650      8.64E-03  00000
Finding J and K together
 Job number = 22, Threshold = 1.00E-11
Integral type ranges set in mkLRange.C for JobNum: 22  <1-21|1-21>
 MakeJK  time:  CPU       0.12 s  wall       0.12 s
Fock build time:  0.12 s (CPU) 0.12 s (wall)
DIIS Errors:  Max 1.30E-02 RMS 2.14E-03

Current DIIS subspace size = 3
REM_GRID_RESTART_DIIS = 0

    3     -78.0101334440      2.14E-03  00000
Finding J and K together
 Job number = 22, Threshold = 1.00E-11
Integral type ranges set in mkLRange.C for JobNum: 22  <1-21|1-21>
 MakeJK  time:  CPU       0.12 s  wall       0.12 s
Fock build time:  0.12 s (CPU) 0.12 s (wall)
DIIS Errors:  Max 4.53E-03 RMS 5.21E-04

Current DIIS subspace size = 4
REM_GRID_RESTART_DIIS = 0

    4     -78.0114426387      5.21E-04  00000
Finding J and K together
 Job number = 22, Threshold = 1.00E-11
Integral type ranges set in mkLRange.C for JobNum: 22  <1-21|1-21>
 MakeJK  time:  CPU       0.12 s  wall       0.12 s
Fock build time:  0.12 s (CPU) 0.12 s (wall)
DIIS Errors:  Max 1.09E-03 RMS 1.34E-04

Current DIIS subspace size = 5
REM_GRID_RESTART_DIIS = 0

    5     -78.0114982103      1.34E-04  00000
Finding J and K together
 Job number = 22, Threshold = 1.00E-11
Integral type ranges set in mkLRange.C for JobNum: 22  <1-21|1-21>
 MakeJK  time:  CPU       0.12 s  wall       0.12 s
Fock build time:  0.12 s (CPU) 0.12 s (wall)
DIIS Errors:  Max 2.85E-04 RMS 3.75E-05

Current DIIS subspace size = 6
REM_GRID_RESTART_DIIS = 0

    6     -78.0115020125      3.75E-05  00000
Finding J and K together
 Job number = 22, Threshold = 1.00E-11
Integral type ranges set in mkLRange.C for JobNum: 22  <1-21|1-21>
 MakeJK  time:  CPU       0.12 s  wall       0.12 s
Fock build time:  0.12 s (CPU) 0.12 s (wall)
DIIS Errors:  Max 7.78E-05 RMS 8.70E-06

Current DIIS subspace size = 7
REM_GRID_RESTART_DIIS = 0

    7     -78.0115024163      8.70E-06  00000
Finding J and K together
 Job number = 22, Threshold = 1.00E-11
Integral type ranges set in mkLRange.C for JobNum: 22  <1-21|1-21>
 MakeJK  time:  CPU       0.12 s  wall       0.12 s
Fock build time:  0.12 s (CPU) 0.12 s (wall)
DIIS Errors:  Max 2.85E-05 RMS 2.62E-06

Current DIIS subspace size = 8
REM_GRID_RESTART_DIIS = 0

    8     -78.0115024399      2.62E-06  00000
Finding J and K together
 Job number = 22, Threshold = 1.00E-11
Integral type ranges set in mkLRange.C for JobNum: 22  <1-21|1-21>
 MakeJK  time:  CPU       0.12 s  wall       0.12 s
Fock build time:  0.12 s (CPU) 0.12 s (wall)
DIIS Errors:  Max 1.11E-05 RMS 9.21E-07

Current DIIS subspace size = 9
REM_GRID_RESTART_DIIS = 0

    9     -78.0115024439      9.21E-07  00000
Finding J and K together
 Job number = 22, Threshold = 1.00E-11
Integral type ranges set in mkLRange.C for JobNum: 22  <1-21|1-21>
 MakeJK  time:  CPU       0.12 s  wall       0.12 s
Fock build time:  0.12 s (CPU) 0.12 s (wall)
DIIS Errors:  Max 1.25E-06 RMS 1.15E-07

Current DIIS subspace size = 10
REM_GRID_RESTART_DIIS = 0

   10     -78.0115024445      1.15E-07  00000
Finding J and K together
 Job number = 22, Threshold = 1.00E-11
Integral type ranges set in mkLRange.C for JobNum: 22  <1-21|1-21>
 MakeJK  time:  CPU       0.12 s  wall       0.12 s
Fock build time:  0.12 s (CPU) 0.12 s (wall)
DIIS Errors:  Max 4.94E-08 RMS 9.63E-09

Current DIIS subspace size = 11
REM_GRID_RESTART_DIIS = 0

   11     -78.0115024445      9.63E-09  00000 Convergence criterion met
 ---------------------------------------
 SCF time:  CPU 1.34 s  wall 1.34 s
 SCF   energy in the final basis set = -78.01150244
 Total energy in the final basis set = -78.01150244
drvman_main.C: 73: calling DrvMan  Calculating analytic gradient of the SCF energy
drvman.C : 218: Calculating analytic gradient of the SCF energy
drvman.C: 244: calling SCF_Grad for normal SCF gradient
 Job number = 111, Threshold = 1.00E-11
Integral type ranges set in mkLRange.C for JobNum: 11  <1-21|22-22>
Finding J and K together
 ML is being used
 Job number = 122, Threshold = 1.00E-11
Integral type ranges set in mkLRange.C for JobNum: 22  <1-21|1-21>
 MakeJK  time:  CPU       0.60 s  wall       0.60 s
 Gradient of SCF Energy
            1           2           3           4           5           6
    1  -0.1223366   0.1124981  -0.0003220  -0.0112600   0.0177742   0.0036463
    2   0.0034577  -0.0079987  -0.0064792  -0.0024607   0.0155545  -0.0020736
    3  -0.0040845  -0.0007805  -0.0021551   0.0020900   0.0070210  -0.0020910
 Max gradient component =       1.223E-01
 RMS gradient           =       3.981E-02
drvman.C: 248: out of SCF_Grad for normal SCF gradient
 Gradient time:  CPU 0.62 s  wall 0.61 s
 ------------------------------------------------------------------------------
                     drvman        : Timing summary (seconds)
 ------------------------------------------------------------------------------
     job step          cpu (% of tot)      sys (% of tot)     wall (% of tot)
 ------------------------------------------------------------------------------
 ------------------------------------------------------------------------------
   Grand Totals     0.6200E+00          0.5000E-05          0.6096E+00
 ------------------------------------------------------------------------------
drvman_main.C: 77: out of DrvMan  Time for this dynamics step: 2.0 s (CPU) 2.0 s (wall)

TIME STEP #7 (t = 120.000 a.u. = 2.90266 fs)
--------------------------------------
 Instantaneous Temperature = 863.2 K
 ----------------------------------------------------------------
             Standard Nuclear Orientation (Angstroms)
    I     Atom           X                Y                Z
 ----------------------------------------------------------------
    1      C      -2.7883863309     2.4652597489    -0.0098412274
    2      C      -1.3598243317     2.4614615065     0.0063051176
    3      H      -3.3505017860     3.3450789545     0.2927880395
    4      H      -3.4182440529     1.5985955643    -0.2633010121
    5      H      -0.7382766045     3.3374757301     0.3252017861
    6      H      -0.7949523750     1.5768640381    -0.3125851672
 ----------------------------------------------------------------
 Nuclear Repulsion Energy =    31.8806535170 hartrees
 There are        8 alpha and        8 beta electrons

                       Distance Matrix (Angstroms)
             C (  1)   C (  2)   H (  3)   H (  4)   H (  5)
   C (  2)  1.428658
   H (  3)  1.087033  2.196736
   H (  4)  1.100940  2.248181  1.834129
   H (  5)  2.252990  1.120454  2.612437  3.248425
   H (  6)  2.203334  1.096943  3.166053  2.623845  1.873429

 Applying Cartesian multipole field
    Component          Value
    ---------          -----
     (2,0,0)        1.00000E-11
     (0,2,0)        2.00000E-11
     (0,0,2)       -3.00000E-10
 Nucleus-field energy     =     0.0000000097 hartrees
 ENuRep (before)= 31.8806535170
 ENucField = 0.0000000097
 ENuRep (after) = 31.8806535267
 Job number = 2, Threshold = 1.00E-11
Integral type ranges set in mkLRange.C for JobNum: 2  <1-21|1-21>
Symmetry turned off temporarily
Symmetry turned back on
 Job number = 11, Threshold = 1.00E-11
Integral type ranges set in mkLRange.C for JobNum: 11  <1-21|22-22>
 Smallest overlap matrix eigenvalue = 1.06E-02
 Multipole matrices computed through 2nd order
 Guess from superposition of atomic densities
 Warning:  Energy on first SCF cycle will be non-variational
 SAD guess density has 16.000000 electrons
 SCF convergence criterion is 10**(-8)
 A restricted Hartree-Fock SCF calculation will be
 performed using Pulay DIIS extrapolation
 SCF converges when DIIS error is below 1.0E-08
Finding J and K together
 Job number = 22, Threshold = 1.00E-11
Integral type ranges set in mkLRange.C for JobNum: 22  <1-21|1-21>
 MakeJK  time:  CPU       0.10 s  wall       0.10 s
Fock build time:  0.10 s (CPU) 0.10 s (wall)
DIIS Errors:  Max 7.17E-01 RMS 1.11E-01

Current DIIS subspace size = 1
REM_GRID_RESTART_DIIS = 0

 ---------------------------------------
  Cycle       Energy         DIIS Error
 ---------------------------------------
    1     -78.1822879649      1.11E-01  00000
Finding J and K together
 Job number = 22, Threshold = 1.00E-11
Integral type ranges set in mkLRange.C for JobNum: 22  <1-21|1-21>
 MakeJK  time:  CPU       0.12 s  wall       0.12 s
Fock build time:  0.12 s (CPU) 0.12 s (wall)
DIIS Errors:  Max 4.11E-02 RMS 8.58E-03

Current DIIS subspace size = 2
REM_GRID_RESTART_DIIS = 0

    2     -77.9936734945      8.58E-03  00000
Finding J and K together
 Job number = 22, Threshold = 1.00E-11
Integral type ranges set in mkLRange.C for JobNum: 22  <1-21|1-21>
 MakeJK  time:  CPU       0.12 s  wall       0.12 s
Fock build time:  0.12 s (CPU) 0.12 s (wall)
DIIS Errors:  Max 1.31E-02 RMS 2.12E-03

Current DIIS subspace size = 3
REM_GRID_RESTART_DIIS = 0

    3     -78.0131628201      2.12E-03  00000
Finding J and K together
 Job number = 22, Threshold = 1.00E-11
Integral type ranges set in mkLRange.C for JobNum: 22  <1-21|1-21>
 MakeJK  time:  CPU       0.12 s  wall       0.12 s
Fock build time:  0.12 s (CPU) 0.12 s (wall)
DIIS Errors:  Max 4.13E-03 RMS 4.89E-04

Current DIIS subspace size = 4
REM_GRID_RESTART_DIIS = 0

    4     -78.0144666306      4.89E-04  00000
Finding J and K together
 Job number = 22, Threshold = 1.00E-11
Integral type ranges set in mkLRange.C for JobNum: 22  <1-21|1-21>
 MakeJK  time:  CPU       0.12 s  wall       0.12 s
Fock build time:  0.12 s (CPU) 0.12 s (wall)
DIIS Errors:  Max 9.01E-04 RMS 1.15E-04

Current DIIS subspace size = 5
REM_GRID_RESTART_DIIS = 0

    5     -78.0145167094      1.15E-04  00000
Finding J and K together
 Job number = 22, Threshold = 1.00E-11
Integral type ranges set in mkLRange.C for JobNum: 22  <1-21|1-21>
 MakeJK  time:  CPU       0.12 s  wall       0.12 s
Fock build time:  0.12 s (CPU) 0.12 s (wall)
DIIS Errors:  Max 2.82E-04 RMS 3.63E-05

Current DIIS subspace size = 6
REM_GRID_RESTART_DIIS = 0

    6     -78.0145196143      3.63E-05  00000
Finding J and K together
 Job number = 22, Threshold = 1.00E-11
Integral type ranges set in mkLRange.C for JobNum: 22  <1-21|1-21>
 MakeJK  time:  CPU       0.12 s  wall       0.12 s
Fock build time:  0.12 s (CPU) 0.12 s (wall)
DIIS Errors:  Max 7.24E-05 RMS 8.50E-06

Current DIIS subspace size = 7
REM_GRID_RESTART_DIIS = 0

    7     -78.0145199585      8.50E-06  00000
Finding J and K together
 Job number = 22, Threshold = 1.00E-11
Integral type ranges set in mkLRange.C for JobNum: 22  <1-21|1-21>
 MakeJK  time:  CPU       0.12 s  wall       0.12 s
Fock build time:  0.12 s (CPU) 0.12 s (wall)
DIIS Errors:  Max 2.08E-05 RMS 2.11E-06

Current DIIS subspace size = 8
REM_GRID_RESTART_DIIS = 0

    8     -78.0145199787      2.11E-06  00000
Finding J and K together
 Job number = 22, Threshold = 1.00E-11
Integral type ranges set in mkLRange.C for JobNum: 22  <1-21|1-21>
 MakeJK  time:  CPU       0.12 s  wall       0.12 s
Fock build time:  0.12 s (CPU) 0.12 s (wall)
DIIS Errors:  Max 8.49E-06 RMS 7.20E-07

Current DIIS subspace size = 9
REM_GRID_RESTART_DIIS = 0

    9     -78.0145199812      7.20E-07  00000
Finding J and K together
 Job number = 22, Threshold = 1.00E-11
Integral type ranges set in mkLRange.C for JobNum: 22  <1-21|1-21>
 MakeJK  time:  CPU       0.12 s  wall       0.12 s
Fock build time:  0.12 s (CPU) 0.12 s (wall)
DIIS Errors:  Max 1.30E-06 RMS 1.18E-07

Current DIIS subspace size = 10
REM_GRID_RESTART_DIIS = 0

   10     -78.0145199815      1.18E-07  00000
Finding J and K together
 Job number = 22, Threshold = 1.00E-11
Integral type ranges set in mkLRange.C for JobNum: 22  <1-21|1-21>
 MakeJK  time:  CPU       0.12 s  wall       0.12 s
Fock build time:  0.12 s (CPU) 0.12 s (wall)
DIIS Errors:  Max 5.36E-08 RMS 9.66E-09

Current DIIS subspace size = 11
REM_GRID_RESTART_DIIS = 0

   11     -78.0145199815      9.66E-09  00000 Convergence criterion met
 ---------------------------------------
 SCF time:  CPU 1.34 s  wall 1.34 s
 SCF   energy in the final basis set = -78.01451998
 Total energy in the final basis set = -78.01451998
drvman_main.C: 73: calling DrvMan  Calculating analytic gradient of the SCF energy
drvman.C : 218: Calculating analytic gradient of the SCF energy
drvman.C: 244: calling SCF_Grad for normal SCF gradient
 Job number = 111, Threshold = 1.00E-11
Integral type ranges set in mkLRange.C for JobNum: 11  <1-21|22-22>
Finding J and K together
 ML is being used
 Job number = 122, Threshold = 1.00E-11
Integral type ranges set in mkLRange.C for JobNum: 22  <1-21|1-21>
 MakeJK  time:  CPU       0.61 s  wall       0.60 s
 Gradient of SCF Energy
            1           2           3           4           5           6
    1  -0.0940759   0.0876858  -0.0080307  -0.0185889   0.0229426   0.0100672
    2  -0.0001747  -0.0034126   0.0048146  -0.0109091   0.0209825  -0.0113007
    3  -0.0064108   0.0010248   0.0017143   0.0000041   0.0093011  -0.0056335
 Max gradient component =       9.408E-02
 RMS gradient           =       3.203E-02
drvman.C: 248: out of SCF_Grad for normal SCF gradient
 Gradient time:  CPU 0.62 s  wall 0.61 s
 ------------------------------------------------------------------------------
                     drvman        : Timing summary (seconds)
 ------------------------------------------------------------------------------
     job step          cpu (% of tot)      sys (% of tot)     wall (% of tot)
 ------------------------------------------------------------------------------
 ------------------------------------------------------------------------------
   Grand Totals     0.6240E+00          0.4000E-05          0.6118E+00
 ------------------------------------------------------------------------------
drvman_main.C: 77: out of DrvMan  Time for this dynamics step: 2.0 s (CPU) 2.0 s (wall)

TIME STEP #8 (t = 140.000 a.u. = 3.38644 fs)
--------------------------------------
 Instantaneous Temperature = 969.4 K
 ----------------------------------------------------------------
             Standard Nuclear Orientation (Angstroms)
    I     Atom           X                Y                Z
 ----------------------------------------------------------------
    1      C      -2.7768865421     2.4653257778    -0.0111431274
    2      C      -1.3708676966     2.4615304600     0.0072639657
    3      H      -3.3538050562     3.3562451552     0.2993329965
    4      H      -3.4266286025     1.5940833304    -0.2652778637
    5      H      -0.7341501278     3.3371870151     0.3322860701
    6      H      -0.7928255660     1.5688915812    -0.3201529161
 ----------------------------------------------------------------
 Nuclear Repulsion Energy =    31.9391318166 hartrees
 There are        8 alpha and        8 beta electrons

                       Distance Matrix (Angstroms)
             C (  1)   C (  2)   H (  3)   H (  4)   H (  5)
   C (  2)  1.406144
   H (  3)  1.105879  2.194962
   H (  4)  1.116160  2.247865  1.851838
   H (  5)  2.247411  1.130408  2.619931  3.262657
   H (  6)  2.198995  1.112717  3.183867  2.634495  1.885733

 Applying Cartesian multipole field
    Component          Value
    ---------          -----
     (2,0,0)        1.00000E-11
     (0,2,0)        2.00000E-11
     (0,0,2)       -3.00000E-10
 Nucleus-field energy     =     0.0000000097 hartrees
 ENuRep (before)= 31.9391318166
 ENucField = 0.0000000097
 ENuRep (after) = 31.9391318263
 Job number = 2, Threshold = 1.00E-11
Integral type ranges set in mkLRange.C for JobNum: 2  <1-21|1-21>
[...]
Finding J and K together
 ML is being used
 Job number = 122, Threshold = 1.00E-11
Integral type ranges set in mkLRange.C for JobNum: 22  <1-21|1-21>
 MakeJK  time:  CPU       0.49 s  wall       0.49 s
 Gradient of SCF Energy
            1           2           3           4           5           6
    1  -0.0140401   0.0015209  -0.0168875  -0.0134577   0.0154327   0.0274317
    2   0.0143150  -0.0025042   0.0192780  -0.0149484   0.0054426  -0.0215830
    3   0.0070037  -0.0052695   0.0207525  -0.0269907   0.0297667  -0.0252628
 Max gradient component =       2.977E-02
 RMS gradient           =       1.782E-02
drvman.C: 248: out of SCF_Grad for normal SCF gradient
 Gradient time:  CPU 0.50 s  wall 0.50 s
 ------------------------------------------------------------------------------
                     drvman        : Timing summary (seconds)
 ------------------------------------------------------------------------------
     job step          cpu (% of tot)      sys (% of tot)     wall (% of tot)
 ------------------------------------------------------------------------------
 ------------------------------------------------------------------------------
   Grand Totals     0.5040E+00          0.5000E-05          0.4971E+00
 ------------------------------------------------------------------------------
drvman_main.C: 77: out of DrvMan  Time for this dynamics step: 2.0 s (CPU) 2.0 s (wall)

TIME STEP #199 (t = 3960.000 a.u. = 95.78782 fs)
--------------------------------------
 Instantaneous Temperature = 1220.1 K
 ----------------------------------------------------------------
             Standard Nuclear Orientation (Angstroms)
    I     Atom           X                Y                Z
 ----------------------------------------------------------------
    1      C      -2.7014294652     2.6637137920    -0.0969027767
    2      C      -1.4504870063     2.2686779733     0.0951979136
    3      H      -3.2725762191     3.2854601946     0.6402042720
    4      H      -3.2511912233     2.3289398906    -1.0209638291
    5      H      -0.8977653122     2.5185104915     1.0445904182
    6      H      -0.8363178501     1.6575862523    -0.6435314448
 ----------------------------------------------------------------
 Nuclear Repulsion Energy =    32.8404050181 hartrees
 There are        8 alpha and        8 beta electrons

                       Distance Matrix (Angstroms)
             C (  1)   C (  2)   H (  3)   H (  4)   H (  5)
   C (  2)  1.325825
   H (  3)  1.120760  2.156592
   H (  4)  1.126144  2.119430  1.916994
   H (  5)  2.139461  1.126616  2.528135  3.137047
   H (  6)  2.188547  1.138577  3.198954  2.534716  1.895975

 Applying Cartesian multipole field
    Component          Value
    ---------          -----
     (2,0,0)        1.00000E-11
     (0,2,0)        2.00000E-11
     (0,0,2)       -3.00000E-10
 Nucleus-field energy     =     0.0000000066 hartrees
 ENuRep (before)= 32.8404050181
 ENucField = 0.0000000066
 ENuRep (after) = 32.8404050247
 Job number = 2, Threshold = 1.00E-11
Integral type ranges set in mkLRange.C for JobNum: 2  <1-21|1-21>
Symmetry turned off temporarily
Symmetry turned back on
 Job number = 11, Threshold = 1.00E-11
Integral type ranges set in mkLRange.C for JobNum: 11  <1-21|22-22>
 Smallest overlap matrix eigenvalue = 7.58E-03
 Multipole matrices computed through 2nd order
 Guess from superposition of atomic densities
 Warning:  Energy on first SCF cycle will be non-variational
 SAD guess density has 16.000000 electrons
 SCF convergence criterion is 10**(-8)
 A restricted Hartree-Fock SCF calculation will be
 performed using Pulay DIIS extrapolation
 SCF converges when DIIS error is below 1.0E-08
Finding J and K together
 Job number = 22, Threshold = 1.00E-11
Integral type ranges set in mkLRange.C for JobNum: 22  <1-21|1-21>
 MakeJK  time:  CPU       0.10 s  wall       0.10 s
Fock build time:  0.10 s (CPU) 0.10 s (wall)
DIIS Errors:  Max 7.69E-01 RMS 1.20E-01

Current DIIS subspace size = 1
REM_GRID_RESTART_DIIS = 0

 ---------------------------------------
  Cycle       Energy         DIIS Error
 ---------------------------------------
    1     -78.3085598711      1.20E-01  00000
Finding J and K together
 Job number = 22, Threshold = 1.00E-11
Integral type ranges set in mkLRange.C for JobNum: 22  <1-21|1-21>
 MakeJK  time:  CPU       0.12 s  wall       0.12 s
Fock build time:  0.12 s (CPU) 0.12 s (wall)
DIIS Errors:  Max 4.09E-02 RMS 8.90E-03

Current DIIS subspace size = 2
REM_GRID_RESTART_DIIS = 0

    2     -78.0022719460      8.90E-03  00000
Finding J and K together
 Job number = 22, Threshold = 1.00E-11
Integral type ranges set in mkLRange.C for JobNum: 22  <1-21|1-21>
 MakeJK  time:  CPU       0.12 s  wall       0.12 s
Fock build time:  0.12 s (CPU) 0.12 s (wall)
DIIS Errors:  Max 1.32E-02 RMS 2.25E-03

Current DIIS subspace size = 3
REM_GRID_RESTART_DIIS = 0

    3     -78.0220522075      2.25E-03  00000
Finding J and K together
 Job number = 22, Threshold = 1.00E-11
Integral type ranges set in mkLRange.C for JobNum: 22  <1-21|1-21>
 MakeJK  time:  CPU       0.12 s  wall       0.12 s
Fock build time:  0.12 s (CPU) 0.12 s (wall)
DIIS Errors:  Max 3.71E-03 RMS 6.83E-04

Current DIIS subspace size = 4
REM_GRID_RESTART_DIIS = 0

    4     -78.0234012728      6.83E-04  00000
Finding J and K together
 Job number = 22, Threshold = 1.00E-11
Integral type ranges set in mkLRange.C for JobNum: 22  <1-21|1-21>
 MakeJK  time:  CPU       0.12 s  wall       0.12 s
Fock build time:  0.12 s (CPU) 0.12 s (wall)
DIIS Errors:  Max 4.83E-04 RMS 7.17E-05

Current DIIS subspace size = 5
REM_GRID_RESTART_DIIS = 0

    5     -78.0234997103      7.17E-05  00000
Finding J and K together
 Job number = 22, Threshold = 1.00E-11
Integral type ranges set in mkLRange.C for JobNum: 22  <1-21|1-21>
 MakeJK  time:  CPU       0.12 s  wall       0.12 s
Fock build time:  0.12 s (CPU) 0.12 s (wall)
DIIS Errors:  Max 1.01E-04 RMS 1.23E-05

Current DIIS subspace size = 6
REM_GRID_RESTART_DIIS = 0

    6     -78.0235015050      1.23E-05  00000
Finding J and K together
 Job number = 22, Threshold = 1.00E-11
Integral type ranges set in mkLRange.C for JobNum: 22  <1-21|1-21>
 MakeJK  time:  CPU       0.12 s  wall       0.12 s
Fock build time:  0.12 s (CPU) 0.12 s (wall)
DIIS Errors:  Max 2.27E-05 RMS 3.31E-06

Current DIIS subspace size = 7
REM_GRID_RESTART_DIIS = 0

    7     -78.0235015669      3.31E-06  00000
Finding J and K together
 Job number = 22, Threshold = 1.00E-11
Integral type ranges set in mkLRange.C for JobNum: 22  <1-21|1-21>
 MakeJK  time:  CPU       0.12 s  wall       0.12 s
Fock build time:  0.12 s (CPU) 0.12 s (wall)
DIIS Errors:  Max 9.05E-06 RMS 1.23E-06

Current DIIS subspace size = 8
REM_GRID_RESTART_DIIS = 0

    8     -78.0235015698      1.23E-06  00000
Finding J and K together
 Job number = 22, Threshold = 1.00E-11
Integral type ranges set in mkLRange.C for JobNum: 22  <1-21|1-21>
 MakeJK  time:  CPU       0.12 s  wall       0.12 s
Fock build time:  0.12 s (CPU) 0.12 s (wall)
DIIS Errors:  Max 3.03E-06 RMS 2.98E-07

Current DIIS subspace size = 9
REM_GRID_RESTART_DIIS = 0

    9     -78.0235015703      2.98E-07  00000
Finding J and K together
 Job number = 22, Threshold = 1.00E-11
Integral type ranges set in mkLRange.C for JobNum: 22  <1-21|1-21>
 MakeJK  time:  CPU       0.12 s  wall       0.12 s
Fock build time:  0.12 s (CPU) 0.12 s (wall)
DIIS Errors:  Max 8.11E-07 RMS 7.85E-08

Current DIIS subspace size = 10
REM_GRID_RESTART_DIIS = 0

   10     -78.0235015704      7.85E-08  00000
Finding J and K together
 Job number = 22, Threshold = 1.00E-11
Integral type ranges set in mkLRange.C for JobNum: 22  <1-21|1-21>
 MakeJK  time:  CPU       0.12 s  wall       0.12 s
Fock build time:  0.12 s (CPU) 0.12 s (wall)
DIIS Errors:  Max 8.02E-08 RMS 9.88E-09

Current DIIS subspace size = 11
REM_GRID_RESTART_DIIS = 0

   11     -78.0235015704      9.88E-09  00000 Convergence criterion met
 ---------------------------------------
 SCF time:  CPU 1.33 s  wall 1.33 s
 SCF   energy in the final basis set = -78.02350157
 Total energy in the final basis set = -78.02350157
drvman_main.C: 73: calling DrvMan  Calculating analytic gradient of the SCF energy
drvman.C : 218: Calculating analytic gradient of the SCF energy
drvman.C: 244: calling SCF_Grad for normal SCF gradient
 Job number = 111, Threshold = 1.00E-11
Integral type ranges set in mkLRange.C for JobNum: 11  <1-21|22-22>
Finding J and K together
 ML is being used
 Job number = 122, Threshold = 1.00E-11
Integral type ranges set in mkLRange.C for JobNum: 22  <1-21|1-21>
 MakeJK  time:  CPU       0.57 s  wall       0.56 s
 Gradient of SCF Energy
            1           2           3           4           5           6
    1   0.0158600  -0.0281454  -0.0168014  -0.0137835   0.0156813   0.0271890
    2   0.0063145   0.0060852   0.0181788  -0.0147966   0.0044802  -0.0202620
    3   0.0120597  -0.0100784   0.0195937  -0.0264009   0.0282082  -0.0233823
 Max gradient component =       2.821E-02
 RMS gradient           =       1.860E-02
drvman.C: 248: out of SCF_Grad for normal SCF gradient
 Gradient time:  CPU 0.58 s  wall 0.57 s
 ------------------------------------------------------------------------------
                     drvman        : Timing summary (seconds)
 ------------------------------------------------------------------------------
     job step          cpu (% of tot)      sys (% of tot)     wall (% of tot)
 ------------------------------------------------------------------------------
 ------------------------------------------------------------------------------
   Grand Totals     0.5800E+00          0.3000E-05          0.5708E+00
 ------------------------------------------------------------------------------
drvman_main.C: 77: out of DrvMan  Time for this dynamics step: 1.9 s (CPU) 1.9 s (wall)

TIME STEP #200 (t = 3980.000 a.u. = 96.27160 fs)
--------------------------------------
 Instantaneous Temperature = 1285.7 K
 ----------------------------------------------------------------
             Standard Nuclear Orientation (Angstroms)
    I     Atom           X                Y                Z
 ----------------------------------------------------------------
    1      C      -2.6888846349     2.6615933356    -0.0957016829
    2      C      -1.4629352029     2.2710816690     0.0940014109
    3      H      -3.2651887661     3.2752675109     0.6361815647
    4      H      -3.2418452104     2.3324890947    -1.0153687217
    5      H      -0.9053582857     2.5122734778     1.0364306519
    6      H      -0.8466089377     1.6670942799    -0.6369987439
 ----------------------------------------------------------------
 Nuclear Repulsion Energy =    33.2500471759 hartrees
 There are        8 alpha and        8 beta electrons

                       Distance Matrix (Angstroms)
             C (  1)   C (  2)   H (  3)   H (  4)   H (  5)
   C (  2)  1.300553
   H (  3)  1.115516  2.133182
   H (  4)  1.122436  2.097378  1.901840
   H (  5)  2.117779  1.121266  2.512202  3.114703
   H (  6)  2.162409  1.130938  3.171236  2.514572  1.875672

 Applying Cartesian multipole field
    Component          Value
    ---------          -----
     (2,0,0)        1.00000E-11
     (0,2,0)        2.00000E-11
     (0,0,2)       -3.00000E-10
 Nucleus-field energy     =     0.0000000066 hartrees
 ENuRep (before)= 33.2500471759
 ENucField = 0.0000000066
 ENuRep (after) = 33.2500471825
 Job number = 2, Threshold = 1.00E-11
Integral type ranges set in mkLRange.C for JobNum: 2  <1-21|1-21>
Symmetry turned off temporarily
Symmetry turned back on
 Job number = 11, Threshold = 1.00E-11
Integral type ranges set in mkLRange.C for JobNum: 11  <1-21|22-22>
 Smallest overlap matrix eigenvalue = 6.95E-03
 Multipole matrices computed through 2nd order
 Guess from superposition of atomic densities
 Warning:  Energy on first SCF cycle will be non-variational
 SAD guess density has 16.000000 electrons
 SCF convergence criterion is 10**(-8)
 A restricted Hartree-Fock SCF calculation will be
 performed using Pulay DIIS extrapolation
 SCF converges when DIIS error is below 1.0E-08
Finding J and K together
 Job number = 22, Threshold = 1.00E-11
Integral type ranges set in mkLRange.C for JobNum: 22  <1-21|1-21>
 MakeJK  time:  CPU       0.10 s  wall       0.10 s
Fock build time:  0.10 s (CPU) 0.10 s (wall)
DIIS Errors:  Max 7.97E-01 RMS 1.24E-01

Current DIIS subspace size = 1
REM_GRID_RESTART_DIIS = 0

 ---------------------------------------
  Cycle       Energy         DIIS Error
 ---------------------------------------
    1     -78.3772874154      1.24E-01  00000
Finding J and K together
 Job number = 22, Threshold = 1.00E-11
Integral type ranges set in mkLRange.C for JobNum: 22  <1-21|1-21>
 MakeJK  time:  CPU       0.12 s  wall       0.12 s
Fock build time:  0.12 s (CPU) 0.12 s (wall)
DIIS Errors:  Max 4.22E-02 RMS 9.11E-03

Current DIIS subspace size = 2
REM_GRID_RESTART_DIIS = 0

    2     -78.0030600836      9.11E-03  00000
Finding J and K together
 Job number = 22, Threshold = 1.00E-11
Integral type ranges set in mkLRange.C for JobNum: 22  <1-21|1-21>
 MakeJK  time:  CPU       0.12 s  wall       0.12 s
Fock build time:  0.12 s (CPU) 0.12 s (wall)
DIIS Errors:  Max 1.42E-02 RMS 2.33E-03

Current DIIS subspace size = 3
REM_GRID_RESTART_DIIS = 0

    3     -78.0232090381      2.33E-03  00000
Finding J and K together
 Job number = 22, Threshold = 1.00E-11
Integral type ranges set in mkLRange.C for JobNum: 22  <1-21|1-21>
 MakeJK  time:  CPU       0.12 s  wall       0.12 s
Fock build time:  0.12 s (CPU) 0.12 s (wall)
DIIS Errors:  Max 3.99E-03 RMS 7.54E-04

Current DIIS subspace size = 4
REM_GRID_RESTART_DIIS = 0

    4     -78.0245980398      7.54E-04  00000
Finding J and K together
 Job number = 22, Threshold = 1.00E-11
Integral type ranges set in mkLRange.C for JobNum: 22  <1-21|1-21>
 MakeJK  time:  CPU       0.12 s  wall       0.12 s
Fock build time:  0.12 s (CPU) 0.12 s (wall)
DIIS Errors:  Max 4.65E-04 RMS 7.19E-05

Current DIIS subspace size = 5
REM_GRID_RESTART_DIIS = 0

    5     -78.0247181508      7.19E-05  00000
Finding J and K together
 Job number = 22, Threshold = 1.00E-11
Integral type ranges set in mkLRange.C for JobNum: 22  <1-21|1-21>
 MakeJK  time:  CPU       0.12 s  wall       0.12 s
Fock build time:  0.12 s (CPU) 0.12 s (wall)
DIIS Errors:  Max 8.55E-05 RMS 1.21E-05

Current DIIS subspace size = 6
REM_GRID_RESTART_DIIS = 0

    6     -78.0247199751      1.21E-05  00000
Finding J and K together
 Job number = 22, Threshold = 1.00E-11
Integral type ranges set in mkLRange.C for JobNum: 22  <1-21|1-21>
 MakeJK  time:  CPU       0.12 s  wall       0.12 s
Fock build time:  0.12 s (CPU) 0.12 s (wall)
DIIS Errors:  Max 1.31E-05 RMS 2.27E-06

Current DIIS subspace size = 7
REM_GRID_RESTART_DIIS = 0

    7     -78.0247200353      2.27E-06  00000
Finding J and K together
 Job number = 22, Threshold = 1.00E-11
Integral type ranges set in mkLRange.C for JobNum: 22  <1-21|1-21>
 MakeJK  time:  CPU       0.12 s  wall       0.12 s
Fock build time:  0.12 s (CPU) 0.12 s (wall)
DIIS Errors:  Max 2.22E-06 RMS 3.00E-07

Current DIIS subspace size = 8
REM_GRID_RESTART_DIIS = 0

    8     -78.0247200375      3.00E-07  00000
Finding J and K together
 Job number = 22, Threshold = 1.00E-11
Integral type ranges set in mkLRange.C for JobNum: 22  <1-21|1-21>
 MakeJK  time:  CPU       0.12 s  wall       0.12 s
Fock build time:  0.12 s (CPU) 0.12 s (wall)
DIIS Errors:  Max 9.54E-07 RMS 9.78E-08

Current DIIS subspace size = 9
REM_GRID_RESTART_DIIS = 0

    9     -78.0247200376      9.78E-08  00000
Finding J and K together
 Job number = 22, Threshold = 1.00E-11
Integral type ranges set in mkLRange.C for JobNum: 22  <1-21|1-21>
 MakeJK  time:  CPU       0.12 s  wall       0.12 s
Fock build time:  0.12 s (CPU) 0.12 s (wall)
DIIS Errors:  Max 2.42E-07 RMS 2.37E-08

Current DIIS subspace size = 10
REM_GRID_RESTART_DIIS = 0

   10     -78.0247200376      2.37E-08  00000
Finding J and K together
 Job number = 22, Threshold = 1.00E-11
Integral type ranges set in mkLRange.C for JobNum: 22  <1-21|1-21>
 MakeJK  time:  CPU       0.12 s  wall       0.12 s
Fock build time:  0.12 s (CPU) 0.12 s (wall)
DIIS Errors:  Max 1.09E-07 RMS 1.15E-08

Current DIIS subspace size = 11
REM_GRID_RESTART_DIIS = 0

   11     -78.0247200376      1.15E-08  00000
Finding J and K together
 Job number = 22, Threshold = 1.00E-11
Integral type ranges set in mkLRange.C for JobNum: 22  <1-21|1-21>
 MakeJK  time:  CPU       0.12 s  wall       0.12 s
Fock build time:  0.12 s (CPU) 0.12 s (wall)
DIIS Errors:  Max 8.38E-09 RMS 1.17E-09

Current DIIS subspace size = 12
REM_GRID_RESTART_DIIS = 0

   12     -78.0247200376      1.17E-09  00000 Convergence criterion met
 ---------------------------------------
 SCF time:  CPU 1.44 s  wall 1.44 s
 SCF   energy in the final basis set = -78.02472004
 Total energy in the final basis set = -78.02472004
drvman_main.C: 73: calling DrvMan  Calculating analytic gradient of the SCF energy
drvman.C : 218: Calculating analytic gradient of the SCF energy
drvman.C: 244: calling SCF_Grad for normal SCF gradient
 Job number = 111, Threshold = 1.00E-11
Integral type ranges set in mkLRange.C for JobNum: 11  <1-21|22-22>
Finding J and K together
 ML is being used
 Job number = 122, Threshold = 1.00E-11
Integral type ranges set in mkLRange.C for JobNum: 22  <1-21|1-21>
 MakeJK  time:  CPU       0.62 s  wall       0.60 s
 Gradient of SCF Energy
            1           2           3           4           5           6
    1   0.0475946  -0.0592043  -0.0155971  -0.0130485   0.0148219   0.0254334
    2  -0.0026521   0.0151772   0.0158653  -0.0139258   0.0030621  -0.0175266
    3   0.0172100  -0.0152050   0.0170034  -0.0239131   0.0247131  -0.0198085
 Max gradient component =       5.920E-02
 RMS gradient           =       2.408E-02
drvman.C: 248: out of SCF_Grad for normal SCF gradient
 Gradient time:  CPU 0.63 s  wall 0.62 s
 ------------------------------------------------------------------------------
                     drvman        : Timing summary (seconds)
 ------------------------------------------------------------------------------
     job step          cpu (% of tot)      sys (% of tot)     wall (% of tot)
 ------------------------------------------------------------------------------
 ------------------------------------------------------------------------------
   Grand Totals     0.6280E+00          0.3000E-05          0.6173E+00
 ------------------------------------------------------------------------------
drvman_main.C: 77: out of DrvMan  Time for this dynamics step: 2.1 s (CPU) 2.1 s (wall)

=============== TIME STEPS COMPLETED ==================

Step-to-Step energy fluctuations, |E(n) - E(n-1)|
Mean: -8.581e-07   Max: 1.362e-04   RMS: 6.151e-05
Overall energy fluctuations, |E(n) - E(0)|
Mean: -1.430e-04   Max: 3.641e-04   RMS: 1.089e-04   RMS(dE)/RMS(dV): 1.177e-02
Kinetic energy fluctuations, |T(n) - V(0)|
Mean: 1.857e-02   Max: 3.306e-02   RMS: 9.161e-03
Potential energy fluctuations, |V(n) - V(0)|
Mean: -1.871e-02   Max: 3.341e-02   RMS: 9.248e-03


 JobOver = TRUE
Archival summary:
1\1\qciep03\JobtypUnspecified\HF\6-31G*\24\jcartus\SatApr2118:32:362018SatApr2118:32:362018\0\\#,JobtypUnspecified,HF,6-31G*,\\0,1\C\H,1,1.11552\H,1,1.12244,2,116.382\C,1,1.30055,2,123.812,3,-176.748,0\H,4,1.12127,1,121.787,2,1.49005,0\H,4,1.13094,1,125.436,2,-178.691,0\\HF=-78.02472\\@

 Total job time:  402.65s(wall), 401.82s(cpu) 
 Sat Apr 21 18:32:36 2018

        *************************************************************
        *                                                           *
        *  Thank you very much for using Q-Chem.  Have a nice day.  *
        *                                                           *
        *************************************************************


*** MISSION COMPLETED -- STARFLEET OUT ***

0 sent ACK to 0 
now end server 0 ... 
