Jobname.Temp
SP        R                             6-31G(d,p)          
Number of atoms                            I                6
Charge                                     I                0
Multiplicity                               I                1
Number of electrons                        I               16
Number of alpha electrons                  I                8
Number of beta electrons                   I                8
Atomic numbers                             I   N=           6
           6           6           1           1           1           1
Current cartesian coordinates              R   N=          18
 -5.34856744E+00  4.65537810E+00  0.00000000E+00 -2.49116926E+00  4.65539700E+00
  0.00000000E+00 -6.32366612E+00  6.26929870E+00  4.97697170E-01 -6.32366612E+00
  3.04145751E+00 -4.97697170E-01 -1.51607058E+00  6.26931760E+00  4.97697170E-01
 -1.51607058E+00  3.04147640E+00 -4.97697170E-01
Nuclear charges                            R   N=           6
  6.00000000E+00  6.00000000E+00  1.00000000E+00  1.00000000E+00  1.00000000E+00
  1.00000000E+00
Number of basis functions                  I               50
Number of contracted shells                I               20
Number of primitive shells                 I               42
Highest angular momentum                   I                2
Largest degree of contraction              I                6
Shell types                                I   N=          20
           0          -1          -1           2           0          -1
          -1           2           0           0           1           0
           0           1           0           0           1           0
           0           1
Number of primitives per shell             I   N=          20
           6           3           1           1           6           3
           1           1           3           1           1           3
           1           1           3           1           1           3
           1           1
Shell to atom map                          I   N=          20
           1           1           1           1           2           2
           2           2           3           3           3           4
           4           4           5           5           5           6
           6           6
Primitive exponents                        R   N=          42
  3.04752490E+03  4.57369510E+02  1.03948690E+02  2.92101550E+01  9.28666300E+00
  3.16392700E+00  7.86827240E+00  1.88128850E+00  5.44249300E-01  1.68714400E-01
  8.00000000E-01  3.04752490E+03  4.57369510E+02  1.03948690E+02  2.92101550E+01
  9.28666300E+00  3.16392700E+00  7.86827240E+00  1.88128850E+00  5.44249300E-01
  1.68714400E-01  8.00000000E-01  1.87311370E+01  2.82539370E+00  6.40121700E-01
  1.61277800E-01  1.10000000E+00  1.87311370E+01  2.82539370E+00  6.40121700E-01
  1.61277800E-01  1.10000000E+00  1.87311370E+01  2.82539370E+00  6.40121700E-01
  1.61277800E-01  1.10000000E+00  1.87311370E+01  2.82539370E+00  6.40121700E-01
  1.61277800E-01  1.10000000E+00
Contraction coefficients                   R   N=          42
  1.83470016E-03  1.40373012E-02  6.88426061E-02  2.32184421E-01  4.67941342E-01
  3.62312032E-01 -1.19332409E-01 -1.60854212E-01  1.14345648E+00  1.00000000E+00
  1.00000000E+00  1.83470016E-03  1.40373012E-02  6.88426061E-02  2.32184421E-01
  4.67941342E-01  3.62312032E-01 -1.19332409E-01 -1.60854212E-01  1.14345648E+00
  1.00000000E+00  1.00000000E+00  3.34945995E-02  2.34726947E-01  8.13757318E-01
  1.00000000E+00  1.00000000E+00  3.34945995E-02  2.34726947E-01  8.13757318E-01
  1.00000000E+00  1.00000000E+00  3.34945995E-02  2.34726947E-01  8.13757318E-01
  1.00000000E+00  1.00000000E+00  3.34945995E-02  2.34726947E-01  8.13757318E-01
  1.00000000E+00  1.00000000E+00
P(S=P) Contraction coefficients            R   N=          42
  0.00000000E+00  0.00000000E+00  0.00000000E+00  0.00000000E+00  0.00000000E+00
  0.00000000E+00  6.89990956E-02  3.16423980E-01  7.44308252E-01  1.00000000E+00
  0.00000000E+00  0.00000000E+00  0.00000000E+00  0.00000000E+00  0.00000000E+00
  0.00000000E+00  0.00000000E+00  6.89990956E-02  3.16423980E-01  7.44308252E-01
  1.00000000E+00  0.00000000E+00  0.00000000E+00  0.00000000E+00  0.00000000E+00
  0.00000000E+00  0.00000000E+00  0.00000000E+00  0.00000000E+00  0.00000000E+00
  0.00000000E+00  0.00000000E+00  0.00000000E+00  0.00000000E+00  0.00000000E+00
  0.00000000E+00  0.00000000E+00  0.00000000E+00  0.00000000E+00  0.00000000E+00
  0.00000000E+00  0.00000000E+00
Coordinates of each shell                  R   N=          60
 -5.34856744E+00  4.65537810E+00  0.00000000E+00 -5.34856744E+00  4.65537810E+00
  0.00000000E+00 -5.34856744E+00  4.65537810E+00  0.00000000E+00 -5.34856744E+00
  4.65537810E+00  0.00000000E+00 -2.49116926E+00  4.65539700E+00  0.00000000E+00
 -2.49116926E+00  4.65539700E+00  0.00000000E+00 -2.49116926E+00  4.65539700E+00
  0.00000000E+00 -2.49116926E+00  4.65539700E+00  0.00000000E+00 -6.32366612E+00
  6.26929870E+00  4.97697170E-01 -6.32366612E+00  6.26929870E+00  4.97697170E-01
 -6.32366612E+00  6.26929870E+00  4.97697170E-01 -6.32366612E+00  3.04145751E+00
 -4.97697170E-01 -6.32366612E+00  3.04145751E+00 -4.97697170E-01 -6.32366612E+00
  3.04145751E+00 -4.97697170E-01 -1.51607058E+00  6.26931760E+00  4.97697170E-01
 -1.51607058E+00  6.26931760E+00  4.97697170E-01 -1.51607058E+00  6.26931760E+00
  4.97697170E-01 -1.51607058E+00  3.04147640E+00 -4.97697170E-01 -1.51607058E+00
  3.04147640E+00 -4.97697170E-01 -1.51607058E+00  3.04147640E+00 -4.97697170E-01
Overlap Matrix                             R   N=        1275
  1.00000000E+00  2.19058872E-01  1.00000000E+00  2.05284133E-16 -4.69288306E-16
  1.00000000E+00 -6.74921886E-16 -7.51937522E-17 -7.12569367E-31  1.00000000E+00
  0.00000000E+00  0.00000000E+00  0.00000000E+00  0.00000000E+00  1.00000000E+00
  1.84261053E-01  8.12273068E-01 -7.64431148E-16 -5.27827568E-17  0.00000000E+00
  1.00000000E+00  7.78201703E-17 -6.53856308E-16  5.69754058E-01  0.00000000E+00
  0.00000000E+00  0.00000000E+00  1.00000000E+00 -4.64368904E-17  1.33672928E-17
  0.00000000E+00  5.69754058E-01  0.00000000E+00  0.00000000E+00  0.00000000E+00
  1.00000000E+00  0.00000000E+00  0.00000000E+00  0.00000000E+00  0.00000000E+00
  5.69754058E-01  0.00000000E+00  0.00000000E+00  0.00000000E+00  1.00000000E+00
  7.91027073E-02  7.10235064E-01 -6.97514246E-16 -1.61366473E-17  0.00000000E+00
  6.29936196E-01  1.37887249E-15  0.00000000E+00  0.00000000E+00  1.00000000E+00
  7.91027073E-02  7.10235064E-01 -2.32504749E-16 -4.84099419E-17  0.00000000E+00
  6.29936196E-01  4.59624163E-16  0.00000000E+00  0.00000000E+00  3.33333333E-01
  1.00000000E+00  7.91027073E-02  7.10235064E-01 -2.32504749E-16 -1.61366473E-17
  0.00000000E+00  6.29936196E-01  4.59624163E-16  0.00000000E+00  0.00000000E+00
  3.33333333E-01  3.33333333E-01  1.00000000E+00  4.69329453E-31  0.00000000E+00
 -2.79494930E-17 -4.02710038E-16  0.00000000E+00  0.00000000E+00  0.00000000E+00
  7.96092403E-16  0.00000000E+00  0.00000000E+00  0.00000000E+00  0.00000000E+00
  1.00000000E+00  0.00000000E+00  0.00000000E+00  0.00000000E+00  0.00000000E+00
 -4.02710038E-16  0.00000000E+00  0.00000000E+00  0.00000000E+00  7.96092403E-16
  0.00000000E+00  0.00000000E+00  0.00000000E+00  0.00000000E+00  1.00000000E+00
  0.00000000E+00  0.00000000E+00  0.00000000E+00  0.00000000E+00 -2.79494930E-17
  0.00000000E+00  0.00000000E+00  0.00000000E+00  0.00000000E+00  0.00000000E+00
  0.00000000E+00  0.00000000E+00  0.00000000E+00  0.00000000E+00  1.00000000E+00
  3.23805234E-07  8.57444374E-03  2.09342731E-02  1.38447778E-07  0.00000000E+00
  4.88162861E-02  1.10469841E-01  7.30586816E-07  0.00000000E+00  2.09886010E-02
  3.74448527E-04  3.74448526E-04  2.36131657E-07  0.00000000E+00  0.00000000E+00
  1.00000000E+00  8.57444374E-03  1.31353049E-01  1.98899276E-01  1.31541050E-06
  0.00000000E+00  2.89840091E-01  5.10241177E-01  3.37445474E-06  0.00000000E+00
  2.36732715E-01  5.37869385E-02  5.37869385E-02  2.09561317E-06  0.00000000E+00
  0.00000000E+00  2.19058872E-01  1.00000000E+00 -2.09342731E-02 -1.98899276E-01
 -2.65714234E-01 -2.21970010E-06  0.00000000E+00 -2.27759529E-01 -2.23039983E-01
 -2.75845141E-06  0.00000000E+00 -3.29094835E-01 -9.09747218E-02 -9.09747217E-02
 -3.48160269E-06  0.00000000E+00  0.00000000E+00  2.10408620E-16  6.20054326E-17
  1.00000000E+00 -1.38447778E-07 -1.31541050E-06 -2.21970010E-06  6.99199590E-02
  0.00000000E+00 -1.50627636E-06 -2.75845141E-06  1.94057180E-01  0.00000000E+00
 -3.04706974E-06  2.68960552E-07 -6.01656813E-07  1.14006563E-01  0.00000000E+00
  0.00000000E+00  2.17041260E-17 -7.90347085E-16 -2.97183441E-31  1.00000000E+00
  0.00000000E+00  0.00000000E+00  0.00000000E+00  0.00000000E+00  6.99199590E-02
  0.00000000E+00  0.00000000E+00  0.00000000E+00  1.94057180E-01  0.00000000E+00
  0.00000000E+00  0.00000000E+00  0.00000000E+00  1.14006563E-01  7.53976755E-07
  0.00000000E+00  0.00000000E+00  0.00000000E+00  0.00000000E+00  1.00000000E+00
  4.88162861E-02  2.89840091E-01  2.27759529E-01  1.50627636E-06  0.00000000E+00
  5.02201781E-01  5.89420299E-01  3.89810193E-06  0.00000000E+00  2.98850864E-01
  2.01950561E-01  2.01950561E-01  1.10997671E-06  0.00000000E+00  0.00000000E+00
  1.84261053E-01  8.12273068E-01 -5.12902517E-16  0.00000000E+00  0.00000000E+00
  1.00000000E+00 -1.10469841E-01 -5.10241177E-01 -2.23039983E-01 -2.75845141E-06
  0.00000000E+00 -5.89420299E-01 -1.89584473E-01 -4.57509410E-06  0.00000000E+00
 -4.14206144E-01 -3.91485905E-01 -3.91485905E-01 -1.20598622E-06  0.00000000E+00
  0.00000000E+00  6.22043806E-17 -3.09699152E-16  5.69754058E-01  0.00000000E+00
  0.00000000E+00  0.00000000E+00  1.00000000E+00 -7.30586816E-07 -3.37445474E-06
 -2.75845141E-06  1.94057180E-01  0.00000000E+00 -3.89810193E-06 -4.57509410E-06
  5.02201781E-01  0.00000000E+00 -3.83136639E-06 -1.49703804E-06 -2.58907263E-06
  1.43000950E-01  0.00000000E+00  0.00000000E+00  7.70652070E-20  0.00000000E+00
  0.00000000E+00  5.69754058E-01  0.00000000E+00  0.00000000E+00  0.00000000E+00
  1.00000000E+00  0.00000000E+00  0.00000000E+00  0.00000000E+00  0.00000000E+00
  1.94057180E-01  0.00000000E+00  0.00000000E+00  0.00000000E+00  5.02201781E-01
  0.00000000E+00  0.00000000E+00  0.00000000E+00  0.00000000E+00  1.43000950E-01
  9.45729695E-07  0.00000000E+00  0.00000000E+00  0.00000000E+00  0.00000000E+00
  5.69754058E-01  0.00000000E+00  0.00000000E+00  0.00000000E+00  1.00000000E+00
  2.09886010E-02  2.36732715E-01  3.29094835E-01  3.04706974E-06  0.00000000E+00
  2.98850864E-01  4.14206144E-01  3.83136639E-06  0.00000000E+00  4.14711649E-01
  9.58116780E-02  9.58116780E-02  5.26509189E-06  0.00000000E+00  0.00000000E+00
  7.91027073E-02  7.10235064E-01 -9.53806495E-16  0.00000000E+00  0.00000000E+00
  6.29936196E-01  0.00000000E+00  0.00000000E+00  0.00000000E+00  1.00000000E+00
  3.74448527E-04  5.37869385E-02  9.09747218E-02 -2.68960552E-07  0.00000000E+00
  2.01950561E-01  3.91485905E-01  1.49703804E-06  0.00000000E+00  9.58116780E-02
  3.81629645E-02  1.27209882E-02 -9.51789906E-07  0.00000000E+00  0.00000000E+00
  7.91027073E-02  7.10235064E-01 -3.17935498E-16  0.00000000E+00  0.00000000E+00
  6.29936196E-01  0.00000000E+00  0.00000000E+00  0.00000000E+00  3.33333333E-01
  1.00000000E+00  3.74448526E-04  5.37869385E-02  9.09747217E-02  6.01656813E-07
  0.00000000E+00  2.01950561E-01  3.91485905E-01  2.58907263E-06  0.00000000E+00
  9.58116780E-02  1.27209882E-02  3.81629646E-02  9.51789906E-07  0.00000000E+00
  0.00000000E+00  7.91027073E-02  7.10235064E-01 -3.17935498E-16  0.00000000E+00
  0.00000000E+00  6.29936196E-01  0.00000000E+00  0.00000000E+00  0.00000000E+00
  3.33333333E-01  3.33333333E-01  1.00000000E+00  2.36131657E-07  2.09561317E-06
  3.48160269E-06 -1.14006563E-01  0.00000000E+00  1.10997671E-06  1.20598622E-06
 -1.43000950E-01  0.00000000E+00  5.26509189E-06 -9.51789906E-07  9.51789906E-07
 -2.11109105E-01  0.00000000E+00  0.00000000E+00  0.00000000E+00  0.00000000E+00
  0.00000000E+00 -5.50680436E-16  0.00000000E+00  0.00000000E+00  0.00000000E+00
  0.00000000E+00  0.00000000E+00  0.00000000E+00  0.00000000E+00  0.00000000E+00
  1.00000000E+00  0.00000000E+00  0.00000000E+00  0.00000000E+00  0.00000000E+00
 -1.14006563E-01  0.00000000E+00  0.00000000E+00  0.00000000E+00 -1.43000950E-01
  0.00000000E+00  0.00000000E+00  0.00000000E+00  0.00000000E+00 -2.11109105E-01
 -1.64854848E-06  0.00000000E+00  0.00000000E+00  0.00000000E+00  0.00000000E+00
 -5.50680436E-16  0.00000000E+00  0.00000000E+00  0.00000000E+00  0.00000000E+00
  0.00000000E+00  0.00000000E+00  0.00000000E+00  0.00000000E+00  1.00000000E+00
  0.00000000E+00  0.00000000E+00  0.00000000E+00  0.00000000E+00 -7.53976755E-07
  0.00000000E+00  0.00000000E+00  0.00000000E+00 -9.45729695E-07  0.00000000E+00
  0.00000000E+00  0.00000000E+00  0.00000000E+00 -1.64854848E-06  3.81629645E-02
  0.00000000E+00  0.00000000E+00  0.00000000E+00  0.00000000E+00  0.00000000E+00
  0.00000000E+00  0.00000000E+00  0.00000000E+00  0.00000000E+00  0.00000000E+00
  0.00000000E+00  0.00000000E+00  0.00000000E+00  0.00000000E+00  1.00000000E+00
  4.19959257E-02  3.11632972E-01 -2.03080862E-01  3.36126377E-01  1.03653889E-01
  4.00300601E-01 -2.58896178E-01  4.28508296E-01  1.32142416E-01  2.28737814E-01
  3.86605075E-01  1.61625328E-01 -2.60176665E-01 -8.02326894E-02  1.32795985E-01
  2.09311360E-05  5.35038552E-03 -1.08875123E-02  4.58483729E-03  1.41387827E-03
  6.19521510E-02 -1.56614307E-01  6.59518080E-02  2.03383069E-02  9.51574474E-03
  2.51995474E-03  1.15535751E-03 -6.20252891E-03 -1.91274418E-03  8.05475176E-04
  1.00000000E+00  9.87354676E-02  5.02376369E-01 -1.33045682E-01  2.20208653E-01
  6.79074445E-02  7.30531342E-01 -2.85998931E-01  4.73367028E-01  1.45975850E-01
  3.91810578E-01  4.25163266E-01  3.77631693E-01 -5.49676411E-02 -1.69507964E-02
  2.80558675E-02  1.16283150E-02  9.34499032E-02 -9.14842607E-02  3.85249119E-02
  1.18803640E-02  2.35346591E-01 -3.62131837E-01  1.52497238E-01  4.70273028E-02
  1.05820030E-01  6.72674350E-02  5.97473746E-02 -3.41810693E-02 -1.05408040E-02
  4.43883505E-03  6.58292049E-01  1.00000000E+00  3.20743498E-02  1.60030806E-01
  4.21380640E-02  2.30515631E-01  7.10858871E-02  8.72684932E-02  1.57278227E-01
  1.00316998E-01  3.09355282E-02 -3.80395437E-02  3.04735951E-01  9.28471994E-02
  3.31748346E-02  1.02303802E-02  1.25068927E-01  1.12754817E-06  4.67467821E-03
 -1.04728930E-02  4.86446462E-03  1.50011012E-03  4.59829277E-02 -9.63096282E-02
  5.28577394E-02  1.63003405E-02  8.11520025E-03  2.06615537E-03  6.29529239E-04
 -6.04998492E-03 -1.86570246E-03  8.47991378E-04 -3.52946353E-16  0.00000000E+00
  1.00000000E+00 -5.30874000E-02 -2.64872693E-01  2.30515631E-01 -2.00123624E-01
 -1.17656787E-01 -1.44441195E-01  1.00316998E-01  5.18495181E-02 -5.12024959E-02
 -2.58291502E-01 -1.83127231E-01 -1.53674711E-01  2.37480112E-01  1.25068927E-01
 -1.21211506E-01 -4.74821498E-07 -1.96855246E-03  4.86446462E-03 -9.69829227E-04
 -6.31710960E-04 -1.93638581E-02  5.28577394E-02  6.95157469E-03 -6.86423192E-03
 -3.97157473E-03 -3.15893128E-04 -2.65100885E-04  1.61011529E-03  8.47991378E-04
 -2.09093406E-04 -1.93282500E-17  0.00000000E+00  0.00000000E+00  1.00000000E+00
 -1.63709719E-02 -8.16808396E-02  7.10858871E-02 -1.17656787E-01  1.45128285E-01
 -4.45424478E-02  3.09355282E-02 -5.12024959E-02  2.02098050E-01 -7.96513471E-02
 -1.55539355E-01  5.16771372E-02  1.25068927E-01 -1.29521971E-01  2.14376433E-01
 -1.46426090E-07 -6.07064845E-04  1.50011012E-03 -6.31710960E-04  8.83836258E-04
 -5.97145250E-03  1.63003405E-02 -6.86423192E-03  2.70936818E-02 -1.22475954E-03
 -2.68315857E-04  8.91481440E-05  8.47991378E-04 -8.78194158E-04  3.69816100E-04
 -1.20801563E-18  0.00000000E+00  0.00000000E+00  0.00000000E+00  1.00000000E+00
  4.19959257E-02  3.11632972E-01 -2.03080862E-01 -3.36126377E-01 -1.03653889E-01
  4.00300601E-01 -2.58896178E-01 -4.28508296E-01 -1.32142416E-01  2.28737814E-01
  3.86605075E-01  1.61625328E-01  2.60176665E-01  8.02326894E-02  1.32795985E-01
  2.09297410E-05  5.35019298E-03 -1.08871151E-02 -4.58477742E-03 -1.41382670E-03
  6.19511271E-02 -1.56611713E-01 -6.59522597E-02 -2.03379700E-02  9.51533021E-03
  2.51991572E-03  1.15530734E-03  6.20240385E-03  1.91266082E-03  8.05458934E-04
  1.78676028E-02  1.47309735E-01 -4.42828898E-20 -1.90894029E-02 -5.88674674E-03
  1.00000000E+00  9.87354676E-02  5.02376369E-01 -1.33045682E-01 -2.20208653E-01
 -6.79074445E-02  7.30531342E-01 -2.85998931E-01 -4.73367028E-01 -1.45975850E-01
  3.91810578E-01  4.25163266E-01  3.77631693E-01  5.49676411E-02  1.69507964E-02
  2.80558675E-02  1.16280942E-02  9.34485033E-02 -9.14828484E-02 -3.85252193E-02
 -1.18801806E-02  2.35344224E-01 -3.62128195E-01 -1.52499276E-01 -4.70268298E-02
  1.05818297E-01  6.72667228E-02  5.97463963E-02  3.41813100E-02  1.05406314E-02
  4.43886632E-03  1.47309735E-01  3.98490670E-01  0.00000000E+00 -9.49469239E-02
 -2.92795168E-02  6.58292049E-01  1.00000000E+00  3.20743498E-02  1.60030806E-01
  4.21380640E-02 -2.30515631E-01 -7.10858871E-02  8.72684932E-02  1.57278227E-01
 -1.00316998E-01 -3.09355282E-02 -3.80395437E-02  3.04735951E-01  9.28471994E-02
 -3.31748346E-02 -1.02303802E-02  1.25068927E-01  1.12743472E-06  4.67447074E-03
 -1.04724266E-02 -4.86436195E-03 -1.50004333E-03  4.59821072E-02 -9.63079096E-02
 -5.28580340E-02 -1.63000497E-02  8.11474173E-03  2.06611298E-03  6.29493670E-04
  6.04978476E-03  1.86559705E-03  8.47963323E-04 -4.42828898E-20  0.00000000E+00
  1.88208934E-03  0.00000000E+00  0.00000000E+00 -3.52946353E-16  0.00000000E+00
  1.00000000E+00  5.30874000E-02  2.64872693E-01 -2.30515631E-01 -2.00123624E-01
 -1.17656787E-01  1.44441195E-01 -1.00316998E-01  5.18495181E-02 -5.12024959E-02
  2.58291502E-01  1.83127231E-01  1.53674711E-01  2.37480112E-01  1.25068927E-01
  1.21211506E-01  4.74784842E-07  1.96851118E-03 -4.86436195E-03 -9.69881932E-04
 -6.31697627E-04  1.93639660E-02 -5.28580340E-02  6.95040813E-03 -6.86427018E-03
  3.97144334E-03  3.15913989E-04  2.65092114E-04  1.61015310E-03  8.47963323E-04
  2.09098316E-04  1.90894029E-02  9.49469239E-02  0.00000000E+00 -1.96882631E-02
 -6.65181631E-03  7.17973562E-16  0.00000000E+00  0.00000000E+00  1.00000000E+00
  1.63709719E-02  8.16808396E-02 -7.10858871E-02 -1.17656787E-01  1.45128285E-01
  4.45424478E-02 -3.09355282E-02 -5.12024959E-02  2.02098050E-01  7.96513471E-02
  1.55539355E-01 -5.16771372E-02  1.25068927E-01 -1.29521971E-01 -2.14376433E-01
  1.46411357E-07  6.07037902E-04 -1.50004333E-03 -6.31697627E-04  8.83796961E-04
  5.97134594E-03 -1.63000497E-02 -6.86427018E-03  2.70931983E-02  1.22469034E-03
  2.68310352E-04 -8.91431070E-05  8.47963323E-04 -8.78144539E-04 -3.69803865E-04
  5.88674674E-03  2.92795168E-02  0.00000000E+00 -6.65181631E-03 -1.69182666E-04
  1.20801563E-18  0.00000000E+00  0.00000000E+00  0.00000000E+00  1.00000000E+00
  2.09297410E-05  5.35019298E-03  1.08871151E-02  4.58477742E-03  1.41382670E-03
  6.19511271E-02  1.56611713E-01  6.59522597E-02  2.03379700E-02  9.51533021E-03
  2.51991572E-03  1.15530734E-03  6.20240385E-03  1.91266082E-03  8.05458934E-04
  4.19959257E-02  3.11632972E-01  2.03080862E-01  3.36126377E-01  1.03653889E-01
  4.00300601E-01  2.58896178E-01  4.28508296E-01  1.32142416E-01  2.28737814E-01
  3.86605075E-01  1.61625328E-01  2.60176665E-01  8.02326894E-02  1.32795985E-01
  4.07276818E-04  3.19185816E-02  2.48029651E-04  9.74932493E-10 -4.49688318E-29
  1.05305312E-05  7.22105054E-03  2.45104051E-06  1.64564922E-06  5.07478599E-07
  1.00000000E+00  1.16280942E-02  9.34485033E-02  9.14828484E-02  3.85252193E-02
  1.18801806E-02  2.35344224E-01  3.62128195E-01  1.52499276E-01  4.70268298E-02
  1.05818297E-01  6.72667228E-02  5.97463963E-02  3.41813100E-02  1.05406314E-02
  4.43886632E-03  9.87354676E-02  5.02376369E-01  1.33045682E-01  2.20208653E-01
  6.79074445E-02  7.30531342E-01  2.85998931E-01  4.73367028E-01  1.45975850E-01
  3.91810578E-01  4.25163266E-01  3.77631693E-01  5.49676411E-02  1.69507964E-02
  2.80558675E-02  3.19185816E-02  1.55081441E-01  2.72644041E-02  1.07168451E-07
  0.00000000E+00  7.22105054E-03  6.17978995E-02  5.47788357E-03  3.67789711E-03
  1.13417492E-03  6.58292049E-01  1.00000000E+00 -1.12743472E-06 -4.67447074E-03
 -1.04724266E-02 -4.86436195E-03 -1.50004333E-03 -4.59821072E-02 -9.63079096E-02
 -5.28580340E-02 -1.63000497E-02 -8.11474173E-03 -2.06611298E-03 -6.29493670E-04
 -6.04978476E-03 -1.86559705E-03 -8.47963323E-04 -3.20743498E-02 -1.60030806E-01
  4.21380640E-02 -2.30515631E-01 -7.10858871E-02 -8.72684932E-02  1.57278227E-01
 -1.00316998E-01 -3.09355282E-02  3.80395437E-02 -3.04735951E-01 -9.28471994E-02
  3.31748346E-02  1.02303802E-02 -1.25068927E-01 -2.48029651E-04 -2.72644041E-02
 -7.36225798E-05 -3.01237388E-10  0.00000000E+00 -2.45104051E-06 -5.47788357E-03
 -1.38554976E-07 -9.68357686E-08 -2.98618196E-08 -8.82365883E-17 -2.54226540E-16
  1.00000000E+00 -4.74784842E-07 -1.96851118E-03 -4.86436195E-03 -9.69881932E-04
 -6.31697627E-04 -1.93639660E-02 -5.28580340E-02  6.95040813E-03 -6.86427018E-03
 -3.97144334E-03 -3.15913989E-04 -2.65092114E-04 -1.61015310E-03 -8.47963323E-04
 -2.09098316E-04 -5.30874000E-02 -2.64872693E-01 -2.30515631E-01 -2.00123624E-01
 -1.17656787E-01 -1.44441195E-01 -1.00316998E-01  5.18495181E-02 -5.12024959E-02
 -2.58291502E-01 -1.83127231E-01 -1.53674711E-01 -2.37480112E-01 -1.25068927E-01
 -1.21211506E-01 -9.74932493E-10 -1.07168451E-07 -3.01237388E-10  3.01432029E-06
  0.00000000E+00 -1.64564922E-06 -3.67789711E-03 -9.68357686E-08 -5.93435102E-08
 -2.00494769E-08 -1.93282500E-17  0.00000000E+00  0.00000000E+00  1.00000000E+00
 -1.46411357E-07 -6.07037902E-04 -1.50004333E-03 -6.31697627E-04  8.83796961E-04
 -5.97134594E-03 -1.63000497E-02 -6.86427018E-03  2.70931983E-02 -1.22469034E-03
 -2.68310352E-04  8.91431070E-05 -8.47963323E-04  8.78144539E-04  3.69803865E-04
 -1.63709719E-02 -8.16808396E-02 -7.10858871E-02 -1.17656787E-01  1.45128285E-01
 -4.45424478E-02 -3.09355282E-02 -5.12024959E-02  2.02098050E-01 -7.96513471E-02
 -1.55539355E-01  5.16771372E-02 -1.25068927E-01  1.29521971E-01  2.14376433E-01
 -4.49688318E-29  0.00000000E+00  0.00000000E+00  0.00000000E+00  3.01432029E-06
 -5.07478599E-07 -1.13417492E-03 -2.98618196E-08 -2.00494769E-08 -5.09936526E-10
 -1.20801563E-18  0.00000000E+00  0.00000000E+00  0.00000000E+00  1.00000000E+00
  2.09311360E-05  5.35038552E-03  1.08875123E-02 -4.58483729E-03 -1.41387827E-03
  6.19521510E-02  1.56614307E-01 -6.59518080E-02 -2.03383069E-02  9.51574474E-03
  2.51995474E-03  1.15535751E-03 -6.20252891E-03 -1.91274418E-03  8.05475176E-04
  4.19959257E-02  3.11632972E-01  2.03080862E-01 -3.36126377E-01 -1.03653889E-01
  4.00300601E-01  2.58896178E-01 -4.28508296E-01 -1.32142416E-01  2.28737814E-01
  3.86605075E-01  1.61625328E-01 -2.60176665E-01 -8.02326894E-02  1.32795985E-01
  1.05313537E-05  7.22127972E-03  2.45128251E-06 -1.64579243E-06 -5.07528705E-07
  4.07276818E-04  3.19185816E-02  2.48029651E-04  9.74932493E-10  4.49688318E-29
  1.78676028E-02  1.47309735E-01 -1.10707224E-20 -1.90894029E-02 -5.88674674E-03
  1.00000000E+00  1.16283150E-02  9.34499032E-02  9.14842607E-02 -3.85249119E-02
 -1.18803640E-02  2.35346591E-01  3.62131837E-01 -1.52497238E-01 -4.70273028E-02
  1.05820030E-01  6.72674350E-02  5.97473746E-02 -3.41810693E-02 -1.05408040E-02
  4.43883505E-03  9.87354676E-02  5.02376369E-01  1.33045682E-01 -2.20208653E-01
 -6.79074445E-02  7.30531342E-01  2.85998931E-01 -4.73367028E-01 -1.45975850E-01
  3.91810578E-01  4.25163266E-01  3.77631693E-01 -5.49676411E-02 -1.69507964E-02
  2.80558675E-02  7.22127972E-03  6.17991154E-02  5.47807157E-03 -3.67798027E-03
 -1.13421385E-03  3.19185816E-02  1.55081441E-01  2.72644041E-02  1.07168451E-07
  0.00000000E+00  1.47309735E-01  3.98490670E-01 -5.10793222E-17 -9.49469239E-02
 -2.92795168E-02  6.58292049E-01  1.00000000E+00 -1.12754817E-06 -4.67467821E-03
 -1.04728930E-02  4.86446462E-03  1.50011012E-03 -4.59829277E-02 -9.63096282E-02
  5.28577394E-02  1.63003405E-02 -8.11520025E-03 -2.06615537E-03 -6.29529239E-04
  6.04998492E-03  1.86570246E-03 -8.47991378E-04 -3.20743498E-02 -1.60030806E-01
  4.21380640E-02  2.30515631E-01  7.10858871E-02 -8.72684932E-02  1.57278227E-01
  1.00316998E-01  3.09355282E-02  3.80395437E-02 -3.04735951E-01 -9.28471994E-02
 -3.31748346E-02 -1.02303802E-02 -1.25068927E-01 -2.45128251E-06 -5.47807157E-03
 -1.38573571E-07  9.68476303E-08  2.98658272E-08 -2.48029651E-04 -2.72644041E-02
 -7.36225798E-05 -3.01237388E-10  0.00000000E+00 -1.10707224E-20 -5.10793222E-17
  1.88208934E-03  2.96766792E-18  9.15162696E-19 -8.82365883E-17 -2.54226540E-16
  1.00000000E+00  4.74821498E-07  1.96855246E-03  4.86446462E-03 -9.69829227E-04
 -6.31710960E-04  1.93638581E-02  5.28577394E-02  6.95157469E-03 -6.86423192E-03
  3.97157473E-03  3.15893128E-04  2.65100885E-04 -1.61011529E-03 -8.47991378E-04
  2.09093406E-04  5.30874000E-02  2.64872693E-01  2.30515631E-01 -2.00123624E-01
 -1.17656787E-01  1.44441195E-01  1.00316998E-01  5.18495181E-02 -5.12024959E-02
  2.58291502E-01  1.83127231E-01  1.53674711E-01 -2.37480112E-01 -1.25068927E-01
  1.21211506E-01  1.64579243E-06  3.67798027E-03  9.68476303E-08 -5.93499516E-08
 -2.00519328E-08 -9.74932493E-10 -1.07168451E-07 -3.01237388E-10  3.01432029E-06
  0.00000000E+00  1.90894029E-02  9.49469239E-02 -2.96766792E-18 -1.96882631E-02
 -6.65181631E-03  1.76473177E-16  0.00000000E+00  0.00000000E+00  1.00000000E+00
  1.46426090E-07  6.07064845E-04  1.50011012E-03 -6.31710960E-04  8.83836258E-04
  5.97145250E-03  1.63003405E-02 -6.86423192E-03  2.70936818E-02  1.22475954E-03
  2.68315857E-04 -8.91481440E-05 -8.47991378E-04  8.78194158E-04 -3.69816100E-04
  1.63709719E-02  8.16808396E-02  7.10858871E-02 -1.17656787E-01  1.45128285E-01
  4.45424478E-02  3.09355282E-02 -5.12024959E-02  2.02098050E-01  7.96513471E-02
  1.55539355E-01 -5.16771372E-02 -1.25068927E-01  1.29521971E-01 -2.14376433E-01
  5.07528705E-07  1.13421385E-03  2.98658272E-08 -2.00519328E-08 -5.10004961E-10
  4.49688318E-29  0.00000000E+00  0.00000000E+00  0.00000000E+00  3.01432029E-06
  5.88674674E-03  2.92795168E-02 -9.15162696E-19 -6.65181631E-03 -1.69182666E-04
  1.20801563E-18  0.00000000E+00  0.00000000E+00  0.00000000E+00  1.00000000E+00
Core Hamiltonian Matrix                    R   N=        1275
 -2.15480678E+01 -4.44968245E+00 -8.38666174E+00 -5.46492598E-02 -4.00941321E-01
 -7.82401295E+00 -4.87937539E-07 -3.52525174E-06 -1.71841897E-06 -7.65391462E+00
  6.70267053E-09  4.84442993E-08  2.56317483E-08 -5.17778272E-02 -7.50197784E+00
 -3.82680604E+00 -6.73622892E+00 -4.18587294E-01 -3.54300103E-06  4.90143305E-08
 -7.13067307E+00 -9.18077716E-03 -3.05552807E-01 -4.20782275E+00 -1.82424205E-06
  2.81796234E-08 -7.25306611E-01 -5.97099296E+00 -8.19704861E-08 -2.56216463E-06
 -1.82424205E-06 -3.99984154E+00 -4.19667549E-02 -5.45202569E-06 -5.01232868E-06
 -5.27717368E+00  1.12600716E-09  3.54909239E-08  2.81796234E-08 -4.19667549E-02
 -3.87669435E+00  8.28467526E-08  1.02284996E-07 -6.44688706E-02 -5.08799631E+00
 -1.63815256E+00 -5.73607474E+00 -6.64129020E-01 -2.44593588E-06  3.36690746E-08
 -4.98683176E+00 -5.94442591E-01 -2.32114026E-06  3.23810583E-08 -6.74846239E+00
 -1.63409414E+00 -5.59840958E+00 -1.12492844E-01 -4.39796217E-06  1.84498068E-08
 -4.81164622E+00 -8.38357258E-02 -3.39331666E-06  1.34329318E-08 -2.90471497E+00
 -6.42484742E+00 -1.62972645E+00 -5.46740320E+00 -1.70798676E-01 -1.46123267E-06
  6.19982168E-08 -4.67680106E+00 -1.36093158E-01 -1.12518542E-06  4.85776366E-08
 -2.84207607E+00 -2.79898988E+00 -6.14215367E+00 -7.66306900E-08 -2.46983971E-06
 -4.23648522E-06 -1.94843322E-01  3.44154553E-02 -2.90125145E-06 -4.02033286E-06
 -1.45207737E-01  3.08453418E-02 -3.50113533E-06 -2.29034059E-06 -7.60142502E-07
 -5.51414492E+00  1.14022368E-09  3.67698932E-08  5.83165478E-08  3.44154553E-02
 -2.95831985E-01  4.34839013E-08  5.60856381E-08  3.08453418E-02 -2.35720264E-01
  4.96757082E-08  1.10411856E-08  3.68027316E-08 -6.40392645E-02 -5.32622820E+00
 -2.57806515E-03 -7.73274991E-02  3.44154553E-02  3.19560027E-08 -2.53092923E-06
 -7.95933675E-02  3.08453418E-02  2.32665204E-08 -1.94887832E-06 -3.69730866E-02
 -1.05328083E-01 -6.15340227E-02  1.91238945E-08 -1.31660544E-06 -5.19696964E+00
 -1.49167439E-05 -1.82255912E-01 -4.41491093E-01 -2.91846914E-06  1.29209825E-10
 -1.01854026E+00 -2.29902090E+00 -1.51979760E-05  1.80327258E-10 -4.46171563E-01
 -8.83223287E-03 -8.82124646E-03 -5.00743179E-06  2.96750228E-10 -6.48479762E-06
 -2.15480678E+01 -1.82255912E-01 -1.24008668E+00 -1.81919805E+00 -1.20391392E-05
 -1.05433246E-09 -2.52050803E+00 -4.31899139E+00 -2.83768355E-05  2.28085440E-08
 -2.13148580E+00 -5.08280144E-01 -5.05480023E-01 -1.85867748E-05  1.17174808E-08
 -1.65279238E-03 -4.44968245E+00 -8.38666174E+00  4.41491093E-01  1.81919805E+00
  2.32052290E+00  1.92306614E-05  1.83466984E-08  1.97512169E+00  1.88998369E+00
  2.18328956E-05  3.86738756E-08  2.81562844E+00  8.26707131E-01  8.21495100E-01
  2.88113906E-05 -2.51726060E-09  3.07644073E-03  5.46492598E-02  4.00941321E-01
 -7.82401295E+00  2.91846914E-06  1.20391392E-05  1.92306614E-05 -5.77950940E-01
 -1.36634613E-03  1.33277818E-05  2.24559099E-05 -1.41354578E+00 -8.33120819E-03
  2.55943562E-05 -1.48353862E-06  5.42614889E-06 -9.06293752E-01 -1.63825664E-03
  2.82361224E-09  4.87937539E-07  3.52525174E-06 -1.71841897E-06 -7.65391462E+00
 -1.29209825E-10  1.05433247E-09  1.83466984E-08 -1.36634613E-03 -5.73941536E-01
  2.97689736E-08  1.08551913E-07 -8.33120819E-03 -1.38909869E+00  2.08631202E-08
 -1.63718091E-08 -2.68514880E-09 -1.63825664E-03 -9.01486454E-01 -5.97365891E-06
 -6.70267052E-09 -4.84442993E-08  2.56317483E-08 -5.17778272E-02 -7.50197784E+00
 -1.01854026E+00 -2.52050803E+00 -1.97512169E+00 -1.33277818E-05 -2.97689736E-08
 -3.80778560E+00 -4.36964864E+00 -2.88984547E-05 -6.93889390E-18 -2.58734477E+00