Process 0 of 1 is on qciep03 - thread support 0
initial socket setup ...start
initial socket setup ...done 
now start server 0 ... 
qciep03.tugraz.at 127.0.1
Q-Chem Developer Version! Running on 127.0.1.*
                  Welcome to Q-Chem
     A Quantum Leap Into The Future Of Chemistry


 Q-Chem 5.0, Q-Chem, Inc., Pleasanton, CA (2017)

 Yihan Shao,  Zhengting Gan,  E. Epifanovsky,  A. T. B. Gilbert,  M. Wormit,  
 J. Kussmann,  A. W. Lange,  A. Behn,  Jia Deng,  Xintian Feng,  D. Ghosh,  
 M. Goldey,  P. R. Horn,  L. D. Jacobson,  I. Kaliman,  T. Kus,  A. Landau,  
 Jie Liu,  E. I. Proynov,  R. M. Richard,  R. P. Steele,  E. J. Sundstrom,  
 H. L. Woodcock III,  P. M. Zimmerman,  D. Zuev,  B. Albrecht,  E. Alguire,  
 S. A. Baeppler,  D. Barton,  Z. Benda,  Y. A. Bernard,  E. J. Berquist,  
 K. B. Bravaya,  H. Burton,  D. Casanova,  Chun-Min Chang,  Yunqing Chen,  
 A. Chien,  K. D. Closser,  M. P. Coons,  S. Dasgupta,  A. L. Dempwolff,  
 M. Diedenhofen,  Hainam Do,  R. G. Edgar,  Po-Tung Fang,  S. Fatehi,  
 Qingguo Feng,  J. Fosso-Tande,  Qinghui Ge,  A. Ghysels,  G. Gidofalvi,  
 J. Gomes,  J. Gonthier,  A. Gunina,  M. W. D. Hanson-Heine,  
 P. H. P. Harbach,  A. W. Hauser,  J. E. Herr,  E. G. Hohenstein,  
 Z. C. Holden,  Kerwin Hui,  T.-C. Jagau,  Hyunjun Ji,  B. Kaduk,  
 K. Khistyaev,  Jaehoon Kim,  P. Klunzinger,  K. Koh,  D. Kosenkov,  
 L. Koulias,  T. Kowalczyk,  C. M. Krauter,  A. Kunitsa,  Ka Un Lao,  
 A. Laurent,  K. V. Lawler,  Joonho Lee,  D. Lefrancois,  S. Lehtola,  
 D. S. Levine,  Yi-Pei Li,  You-Sheng Lin,  Fenglai Liu,  E. Livshits,  
 A. Luenser,  P. Manohar,  E. Mansoor,  S. F. Manzer,  Shan-Ping Mao,  
 Yuezhi Mao,  N. Mardirossian,  A. V. Marenich,  T. Markovich,  
 L. A. Martinez-Martinez,  S. A. Maurer,  N. J. Mayhall,  S. C. McKenzie,  
 J.-M. Mewes,  A. F. Morrison,  J. W. Mullinax,  K. Nanda,  
 T. S. Nguyen-Beck,  R. Olivares-Amaya,  J. A. Parkhill,  T. M. Perrine,  
 F. Plasser,  S. Prager,  A. Prociuk,  E. Ramos,  D. R. Rehn,  F. Rob,  
 M. Schneider,  N. Sergueev,  S. M. Sharada,  S. Sharma,  D. W. Small,  
 T. Stauch,  T. Stein,  Yu-Chuan Su,  A. J. W. Thom,  A. Tkatchenko,  
 T. Tsuchimochi,  L. Vogt,  O. Vydrov,  M. A. Watson,  J. Wenzel,  
 M. de Wergifosse,  T. A. Wesolowski,  A. White,  J. Witte,  A. Yamada,  
 Jun Yang,  K. Yao,  S. Yeganeh,  S. R. Yost,  Zhi-Qiang You,  A. Zech,  
 Igor Ying Zhang,  Xing Zhang,  Yan Zhao,  Ying Zhu,  B. R. Brooks,  
 G. K. L. Chan,  C. J. Cramer,  M. S. Gordon,  W. J. Hehre,  A. Klamt,  
 M. W. Schmidt,  C. D. Sherrill,  D. G. Truhlar,  A. Aspuru-Guzik,  R. Baer,  
 A. T. Bell,  N. A. Besley,  Jeng-Da Chai,  R. A. DiStasio Jr.,  A. Dreuw,  
 B. D. Dunietz,  T. R. Furlani,  Chao-Ping Hsu,  Yousung Jung,  Jing Kong,  
 D. S. Lambrecht,  WanZhen Liang,  C. Ochsenfeld,  V. A. Rassolov,  
 L. V. Slipchenko,  J. E. Subotnik,  T. Van Voorhis,  J. M. Herbert,  
 A. I. Krylov,  P. M. W. Gill,  M. Head-Gordon

 Contributors to earlier versions of Q-Chem not listed above: 
 R. D. Adamson,  B. Austin,  J. Baker,  G. J. O. Beran,  K. Brandhorst,  
 S. T. Brown,  E. F. C. Byrd,  A. K. Chakraborty,  C.-L. Cheng,  
 Siu Hung Chien,  D. M. Chipman,  D. L. Crittenden,  H. Dachsel,  
 R. J. Doerksen,  A. D. Dutoi,  L. Fusti-Molnar,  W. A. Goddard III,  
 A. Golubeva-Zadorozhnaya,  S. R. Gwaltney,  G. Hawkins,  A. Heyden,  
 S. Hirata,  G. Kedziora,  F. J. Keil,  C. Kelley,  Jihan Kim,  R. A. King,  
 R. Z. Khaliullin,  P. P. Korambath,  W. Kurlancheek,  A. M. Lee,  M. S. Lee,  
 S. V. Levchenko,  Ching Yeh Lin,  D. Liotard,  R. C. Lochan,  I. Lotan,  
 P. E. Maslen,  N. Nair,  D. P. O'Neill,  D. Neuhauser,  E. Neuscamman,  
 C. M. Oana,  R. Olson,  B. Peters,  R. Peverati,  P. A. Pieniazek,  
 Y. M. Rhee,  J. Ritchie,  M. A. Rohrdanz,  E. Rosta,  N. J. Russ,  
 H. F. Schaefer III,  N. E. Schultz,  N. Shenvi,  A. C. Simmonett,  A. Sodt,  
 D. Stuck,  K. S. Thanthiriwatte,  V. Vanovschi,  Tao Wang,  A. Warshel,  
 C. F. Williams,  Q. Wu,  X. Xu,  W. Zhang

 Please cite Q-Chem as follows:
 Y. Shao et al., Mol. Phys. 113, 184-215 (2015)
 DOI: 10.1080/00268976.2014.952696

 Q-Chem 5.0.2 for Intel X86 EM64T Linux

 Parts of Q-Chem use Armadillo 5.200.1 (Boston Tea Smuggler).
 http://arma.sourceforge.net/

 Q-Chem begins on Thu Feb  1 12:03:54 2018  


Host: 0

     Scratch files written to /home/jcartus/scratch/29_CF3Br-ben_mono2.dir//
 Using version located at /usr/local/qchem/bin/qchem

 Parallel job on  1  processors

Total Memory Limit in MB = 2000
Mega-Array Size in MB = 192

Checking the input file for inconsistencies... 	...done.
Finally everything over in PARseQInput

--------------------------------------------------------------
User input:
--------------------------------------------------------------
$rem
SCF_PRINT                     1
BASIS                         6-311++g**
SCF_SAVE_MATRICES             1
SCF_CONVERGENCE               5
SCF_FINAL_PRINT               1
METHOD                        hf
JOBTYPE                       sp
$end

$molecule
0 1
Br    -0.268325907    -3.194209024    1.99445895
C    0.049999933    -5.089197474    1.929391171
F    0.078949601    -5.512441335    0.671851563
F    1.211983937    -5.3839963    2.498664481
F    -0.909987405    -5.743747328    2.570721738
$end


--------------------------------------------------------------
 ----------------------------------------------------------------
             Standard Nuclear Orientation (Angstroms)
    I     Atom           X                Y                Z
 ----------------------------------------------------------------
    1      Br      1.1173710051     0.0001226213     0.0000256725
    2      C      -0.8052694625     0.0000043203     0.0000032719
    3      F      -1.2698198232     0.8508988780    -0.9063910843
    4      F      -1.2688709467    -1.2106471910    -0.2838661642
    5      F      -1.2697946082     0.3592685721     1.1901552299
 ----------------------------------------------------------------
 Molecular Point Group                 C1    NOp =  1
 Largest Abelian Subgroup              C1    NOp =  1
 Nuclear Repulsion Energy =   367.9209025399 hartrees
 There are       34 alpha and       34 beta electrons
 Requested basis set is 6-311++G(d,p)
 There are 43 shells and 136 basis functions

 Total QAlloc Memory Limit   2000 MB
 Mega-Array Size       188 MB
 MEM_STATIC part       192 MB

finished with qalloc call

                       Distance Matrix (Angstroms)
             Br(  1)   C (  2)   F (  3)   F (  4)
   C (  2)  1.922640
   F (  3)  2.691485  1.327170
   F (  4)  2.690857  1.327097  2.153488
   F (  5)  2.691459  1.327146  2.153417  2.153457

 Job number = 2, Threshold = 1.00E-08
Integral type ranges set in mkLRange.C for JobNum: 2  <1-21|1-21>
Symmetry turned off temporarily
 Using the largest function pair in Schwarz integrals
Total number of integrals generated =          165185
Symmetry turned back on
 A cutoff of  1.0D-08 yielded    786 shell pairs
 There are      8345 function pairs (      9203 Cartesian)
 Job number = 11, Threshold = 1.00E-08
Integral type ranges set in mkLRange.C for JobNum: 11  <1-21|22-22>
Total number of integrals generated =           45900
 Smallest overlap matrix eigenvalue = 5.37E-04
 Multipole matrices computed through 2nd order

 Scale SEOQF with 1.000000e-01/1.000000e-01/1.000000e-01

 Standard Electronic Orientation quadrupole field applied
 Nucleus-field energy     =     0.0000000025 hartrees
 ENuRep (before)= 367.9209025399
 ENucField = 0.0000000025
 ENuRep (after) = 367.9209025424
 Guess from superposition of atomic densities
 Warning:  Energy on first SCF cycle will be non-variational
 SAD guess density has 68.000000 electrons

 ==================================================
    GEN_SCFMAN: A general SCF calculation manager  
                                                   
    Authors:                                       
        -- Eric Jon Sundstrom 2008-2014            
        -- Paul Horn 2010-2015                     
        -- Yuezhi Mao 2012-                        
        -- Dmitri Zuev 2014                        
        -- Alec White 2015-                        
        -- David Stuck 2015                        
        -- Shaama M.S. 2015                        
        -- Shane Yost 2015-                         
        -- Joonho Lee 2016-                        
        -- David Small 2016-                       
        -- Daniel Levine 2016-                     
        -- Susi Lehtola 2017-                      
        -- Hugh Burton 2017-                       
 ==================================================
 Hartree-Fock
Finding J and K together
 Job number = 22, Threshold = 1.00E-08
Integral type ranges set in mkLRange.C for JobNum: 22  <1-21|1-21>
 MakeJK  time:  CPU       4.01 s  wall       4.37 s
 HF Exchange:              -125.02850592838045
 One-Electron:             -4785.14817862503969
 Total Coulomb:            1632.82850197561379
 Nuclear repulsion:        367.92090254242868
 A restricted SCF calculation will be
 performed using DIIS
 SCF converges when DIIS error is below 1.0e-05
 ---------------------------------------
  Cycle       Energy         DIIS error
 ---------------------------------------
Finding J and K together
 Job number = 22, Threshold = 1.00E-08
Integral type ranges set in mkLRange.C for JobNum: 22  <1-21|1-21>
 MakeJK  time:  CPU       7.53 s  wall       8.38 s
 HF Exchange:              -125.16139705914497
 One-Electron:             -4780.39955077110062
 Total Coulomb:            1629.17966120836968
 Nuclear repulsion:        367.92090254242868
    1   -2909.4272800354      4.83e-02  
Finding J and K together
 Job number = 22, Threshold = 1.00E-08
Integral type ranges set in mkLRange.C for JobNum: 22  <1-21|1-21>
 MakeJK  time:  CPU       7.45 s  wall       7.95 s
 HF Exchange:              -124.90209760884815
 One-Electron:             -4783.43623527214186
 Total Coulomb:            1631.84205876571241
 Nuclear repulsion:        367.92090254242868
    2   -2908.4603840794      9.55e-03  
Finding J and K together
 Job number = 22, Threshold = 1.00E-08
Integral type ranges set in mkLRange.C for JobNum: 22  <1-21|1-21>
 MakeJK  time:  CPU       7.29 s  wall       8.77 s
 HF Exchange:              -125.09789733127216
 One-Electron:             -4783.38338399711756
 Total Coulomb:            1631.91851305528394
 Nuclear repulsion:        367.92090254242868
    3   -2908.5753715728      6.54e-03  
Finding J and K together
 Job number = 22, Threshold = 1.00E-08
Integral type ranges set in mkLRange.C for JobNum: 22  <1-21|1-21>
 MakeJK  time:  CPU       6.98 s  wall       7.73 s
 HF Exchange:              -125.06848162850549
 One-Electron:             -4782.98095193897916
 Total Coulomb:            1631.48547094602395
 Nuclear repulsion:        367.92090254242868
    4   -2908.6418657307      5.97e-04  
Finding J and K together
 Job number = 22, Threshold = 1.00E-08
Integral type ranges set in mkLRange.C for JobNum: 22  <1-21|1-21>
 MakeJK  time:  CPU       7.25 s  wall       7.92 s
 HF Exchange:              -125.08706178045186
 One-Electron:             -4783.15614122862826
 Total Coulomb:            1631.67906538329476
 Nuclear repulsion:        367.92090254242868
    5   -2908.6430600790      2.47e-04  
Finding J and K together
 Job number = 22, Threshold = 1.00E-08
Integral type ranges set in mkLRange.C for JobNum: 22  <1-21|1-21>
 MakeJK  time:  CPU       7.63 s  wall       7.65 s
 HF Exchange:              -125.08654220698027
 One-Electron:             -4783.13811785295184
 Total Coulomb:            1631.66050750546583
 Nuclear repulsion:        367.92090254242868
    6   -2908.6432350834      5.57e-05  
Finding J and K together
 Job number = 22, Threshold = 1.00E-08
Integral type ranges set in mkLRange.C for JobNum: 22  <1-21|1-21>
 MakeJK  time:  CPU       7.60 s  wall       7.61 s
 HF Exchange:              -125.08681433281859
 One-Electron:             -4783.14057660473463
 Total Coulomb:            1631.66323718134254
 Nuclear repulsion:        367.92090254242868
    7   -2908.6432500120      1.36e-05  
    8   -2908.6432512138      3.87e-06  Convergence criterion met
 ---------------------------------------
 SCF time:   CPU 56.35s  wall 61.00s 
 Total energy in the final basis set =    -2908.6432512138
 HF Exchange:              -125.08681433281859
 One-Electron:             -4783.14057660473463
 Total Coulomb:            1631.66323718134254
 Nuclear repulsion:        367.92090254242868
Wall  1 = 61
Clock 1 = 56.43957519531250
 ==================================================
                  Done GEN_SCFMAN                  
 ==================================================

Symmetry turned off temporarily

 --------------------------------------------------------------

                    Orbital Energies (a.u.)
 --------------------------------------------------------------

 Alpha MOs
 -- Occupied --
******* -65.204 -58.564 -58.562 -58.562 -26.376 -26.376 -26.376
-11.584  -9.884  -7.499  -7.489  -7.489  -3.239  -3.234  -3.234
 -3.222  -3.222  -1.776  -1.675  -1.675  -1.106  -0.974  -0.865
 -0.865  -0.820  -0.744  -0.744  -0.698  -0.698  -0.681  -0.564
 -0.462  -0.462
 -- Virtual --
  0.065   0.080   0.105   0.105   0.111   0.126   0.126   0.165
  0.199   0.291   0.291   0.339   0.339   0.348   0.367   0.367
  0.399   0.413   0.437   0.437   0.477   0.496   0.496   0.525
  0.545   0.560   0.560   0.696   0.696   0.714   0.817   0.817
  0.851   0.994   0.994   1.055   1.204   1.407   1.407   1.503
  1.503   1.602   1.659   1.674   1.674   1.682   1.704   1.704
  1.963   2.073   2.073   2.167   2.167   2.290   2.290   2.310
  2.540   3.153   3.258   3.258   4.108   4.140   4.140   4.143
  4.169   4.169   4.171   4.266   4.266   4.531   4.531   4.543
  4.628   4.628   4.667   4.667   4.753   4.913   5.357   5.357
  6.849   6.849   6.928   6.934   6.935   6.945   6.979   7.167
  7.363   7.363   8.191   8.191   8.316  24.534  49.393  68.686
 68.686  68.747 293.869 293.869 294.0301028.319
 --------------------------------------------------------------

          Ground-State Mulliken Net Atomic Charges

     Atom                 Charge (a.u.)
  ----------------------------------------
      1 Br                    0.099925
      2 C                     0.222138
      3 F                    -0.107382
      4 F                    -0.107319
      5 F                    -0.107362
  ----------------------------------------
  Sum of atomic charges =     0.000000

 -----------------------------------------------------------------
                    Cartesian Multipole Moments
 -----------------------------------------------------------------
    Charge (ESU x 10^10)
                 0.0000
    Dipole Moment (Debye)
         X       0.9202      Y       0.0001      Z       0.0001
       Tot       0.9202
    Quadrupole Moments (Debye-Ang)
        XX     -37.5831     XY       0.0002     YY     -40.0358
        XZ      -0.0000     YZ       0.0001     ZZ     -40.0357
    Octopole Moments (Debye-Ang^2)
       XXX      15.9006    XXY      -0.0028    XYY       3.8066
       YYY       1.0384    XXZ      -0.0004    XYZ      -0.0004
       YYZ       0.8587    XZZ       3.8076    YZZ      -1.0382
       ZZZ      -0.8584
    Hexadecapole Moments (Debye-Ang^3)
      XXXX    -311.1480   XXXY       0.0037   XXYY     -75.5845
      XYYY      -1.0906   YYYY    -104.0101   XXXZ       0.0005
      XXYZ       0.0005   XYYZ      -0.9011   YYYZ       0.0000
      XXZZ     -75.5851   XYZZ       1.0891   YYZZ     -34.6692
      XZZZ       0.9004   YZZZ       0.0003   ZZZZ    -104.0054
 -----------------------------------------------------------------
 Mayer SCF Bond Order, atomic valence on the diagonal:

            1           2           3           4           5
    1   0.8950682   1.2706131  -0.1251409  -0.1252568  -0.1251472
    2   1.2706131   4.3994756   1.0429393   1.0429682   1.0429550
    3  -0.1251409   1.0429393   0.9433296   0.0127755   0.0127556
    4  -0.1252568   1.0429682   0.0127755   0.9432670   0.0127801
    5  -0.1251472   1.0429550   0.0127556   0.0127801   0.9433436


 JobOver = TRUE
Archival summary:
1\1\qciep03\SP\HF\BasisUnspecified\r131\jcartus\ThuFeb112:04:552018ThuFeb112:04:552018\0\\#,HF,BasisUnspecified,\\0,1\Br\C,1,1.92264\F,2,1.3271,1,110.45\F,2,1.32715,1,110.487,3,119.995,0\F,2,1.32717,1,110.487,3,-119.996,0\\HF=-2908.64325\\@

 Total job time:  61.71s(wall), 56.85s(cpu) 
 Thu Feb  1 12:04:55 2018

        *************************************************************
        *                                                           *
        *  Thank you very much for using Q-Chem.  Have a nice day.  *
        *                                                           *
        *************************************************************


*** MISSION COMPLETED -- STARFLEET OUT ***

0 sent ACK to 0 
now end server 0 ... 
