Process 0 of 1 is on qciep03 - thread support 0
initial socket setup ...start
initial socket setup ...done 
now start server 0 ... 
qciep03.tugraz.at 127.0.1
Q-Chem Developer Version! Running on 127.0.1.*
                  Welcome to Q-Chem
     A Quantum Leap Into The Future Of Chemistry


 Q-Chem 5.0, Q-Chem, Inc., Pleasanton, CA (2017)

 Yihan Shao,  Zhengting Gan,  E. Epifanovsky,  A. T. B. Gilbert,  M. Wormit,  
 J. Kussmann,  A. W. Lange,  A. Behn,  Jia Deng,  Xintian Feng,  D. Ghosh,  
 M. Goldey,  P. R. Horn,  L. D. Jacobson,  I. Kaliman,  T. Kus,  A. Landau,  
 Jie Liu,  E. I. Proynov,  R. M. Richard,  R. P. Steele,  E. J. Sundstrom,  
 H. L. Woodcock III,  P. M. Zimmerman,  D. Zuev,  B. Albrecht,  E. Alguire,  
 S. A. Baeppler,  D. Barton,  Z. Benda,  Y. A. Bernard,  E. J. Berquist,  
 K. B. Bravaya,  H. Burton,  D. Casanova,  Chun-Min Chang,  Yunqing Chen,  
 A. Chien,  K. D. Closser,  M. P. Coons,  S. Dasgupta,  A. L. Dempwolff,  
 M. Diedenhofen,  Hainam Do,  R. G. Edgar,  Po-Tung Fang,  S. Fatehi,  
 Qingguo Feng,  J. Fosso-Tande,  Qinghui Ge,  A. Ghysels,  G. Gidofalvi,  
 J. Gomes,  J. Gonthier,  A. Gunina,  M. W. D. Hanson-Heine,  
 P. H. P. Harbach,  A. W. Hauser,  J. E. Herr,  E. G. Hohenstein,  
 Z. C. Holden,  Kerwin Hui,  T.-C. Jagau,  Hyunjun Ji,  B. Kaduk,  
 K. Khistyaev,  Jaehoon Kim,  P. Klunzinger,  K. Koh,  D. Kosenkov,  
 L. Koulias,  T. Kowalczyk,  C. M. Krauter,  A. Kunitsa,  Ka Un Lao,  
 A. Laurent,  K. V. Lawler,  Joonho Lee,  D. Lefrancois,  S. Lehtola,  
 D. S. Levine,  Yi-Pei Li,  You-Sheng Lin,  Fenglai Liu,  E. Livshits,  
 A. Luenser,  P. Manohar,  E. Mansoor,  S. F. Manzer,  Shan-Ping Mao,  
 Yuezhi Mao,  N. Mardirossian,  A. V. Marenich,  T. Markovich,  
 L. A. Martinez-Martinez,  S. A. Maurer,  N. J. Mayhall,  S. C. McKenzie,  
 J.-M. Mewes,  A. F. Morrison,  J. W. Mullinax,  K. Nanda,  
 T. S. Nguyen-Beck,  R. Olivares-Amaya,  J. A. Parkhill,  T. M. Perrine,  
 F. Plasser,  S. Prager,  A. Prociuk,  E. Ramos,  D. R. Rehn,  F. Rob,  
 M. Schneider,  N. Sergueev,  S. M. Sharada,  S. Sharma,  D. W. Small,  
 T. Stauch,  T. Stein,  Yu-Chuan Su,  A. J. W. Thom,  A. Tkatchenko,  
 T. Tsuchimochi,  L. Vogt,  O. Vydrov,  M. A. Watson,  J. Wenzel,  
 M. de Wergifosse,  T. A. Wesolowski,  A. White,  J. Witte,  A. Yamada,  
 Jun Yang,  K. Yao,  S. Yeganeh,  S. R. Yost,  Zhi-Qiang You,  A. Zech,  
 Igor Ying Zhang,  Xing Zhang,  Yan Zhao,  Ying Zhu,  B. R. Brooks,  
 G. K. L. Chan,  C. J. Cramer,  M. S. Gordon,  W. J. Hehre,  A. Klamt,  
 M. W. Schmidt,  C. D. Sherrill,  D. G. Truhlar,  A. Aspuru-Guzik,  R. Baer,  
 A. T. Bell,  N. A. Besley,  Jeng-Da Chai,  R. A. DiStasio Jr.,  A. Dreuw,  
 B. D. Dunietz,  T. R. Furlani,  Chao-Ping Hsu,  Yousung Jung,  Jing Kong,  
 D. S. Lambrecht,  WanZhen Liang,  C. Ochsenfeld,  V. A. Rassolov,  
 L. V. Slipchenko,  J. E. Subotnik,  T. Van Voorhis,  J. M. Herbert,  
 A. I. Krylov,  P. M. W. Gill,  M. Head-Gordon

 Contributors to earlier versions of Q-Chem not listed above: 
 R. D. Adamson,  B. Austin,  J. Baker,  G. J. O. Beran,  K. Brandhorst,  
 S. T. Brown,  E. F. C. Byrd,  A. K. Chakraborty,  C.-L. Cheng,  
 Siu Hung Chien,  D. M. Chipman,  D. L. Crittenden,  H. Dachsel,  
 R. J. Doerksen,  A. D. Dutoi,  L. Fusti-Molnar,  W. A. Goddard III,  
 A. Golubeva-Zadorozhnaya,  S. R. Gwaltney,  G. Hawkins,  A. Heyden,  
 S. Hirata,  G. Kedziora,  F. J. Keil,  C. Kelley,  Jihan Kim,  R. A. King,  
 R. Z. Khaliullin,  P. P. Korambath,  W. Kurlancheek,  A. M. Lee,  M. S. Lee,  
 S. V. Levchenko,  Ching Yeh Lin,  D. Liotard,  R. C. Lochan,  I. Lotan,  
 P. E. Maslen,  N. Nair,  D. P. O'Neill,  D. Neuhauser,  E. Neuscamman,  
 C. M. Oana,  R. Olson,  B. Peters,  R. Peverati,  P. A. Pieniazek,  
 Y. M. Rhee,  J. Ritchie,  M. A. Rohrdanz,  E. Rosta,  N. J. Russ,  
 H. F. Schaefer III,  N. E. Schultz,  N. Shenvi,  A. C. Simmonett,  A. Sodt,  
 D. Stuck,  K. S. Thanthiriwatte,  V. Vanovschi,  Tao Wang,  A. Warshel,  
 C. F. Williams,  Q. Wu,  X. Xu,  W. Zhang

 Please cite Q-Chem as follows:
 Y. Shao et al., Mol. Phys. 113, 184-215 (2015)
 DOI: 10.1080/00268976.2014.952696

 Q-Chem 5.0.2 for Intel X86 EM64T Linux

 Parts of Q-Chem use Armadillo 5.200.1 (Boston Tea Smuggler).
 http://arma.sourceforge.net/

 Q-Chem begins on Thu Feb  1 11:53:15 2018  


Host: 0

     Scratch files written to /home/jcartus/scratch/26_benI-mSH_mono2.dir//
 Using version located at /usr/local/qchem/bin/qchem

 Parallel job on  1  processors

Total Memory Limit in MB = 2000
Mega-Array Size in MB = 192

Checking the input file for inconsistencies... 	...done.
Finally everything over in PARseQInput

--------------------------------------------------------------
User input:
--------------------------------------------------------------
$rem
SCF_PRINT                     1
BASIS                         6-311++g**
SCF_SAVE_MATRICES             1
SCF_CONVERGENCE               5
SCF_FINAL_PRINT               1
METHOD                        hf
JOBTYPE                       sp
$end

$molecule
0 1
S    -3.112683203    6.289227834    1.226984439
H    -4.328789697    5.797771251    0.973373089
C    -2.689135032    6.70316383    -0.489062886
H    -1.684433029    7.115457372    -0.460265708
H    -2.683867206    5.816530502    -1.115183775
H    -3.365330613    7.451201412    -0.890098894
$end


--------------------------------------------------------------
 ----------------------------------------------------------------
             Standard Nuclear Orientation (Angstroms)
    I     Atom           X                Y                Z
 ----------------------------------------------------------------
    1      S       0.6601814370    -0.0862466930    -0.0001127410
    2      H       0.8933317165     1.2292008975     0.0012578754
    3      C      -1.1520965739     0.0195966352    -0.0004037717
    4      H      -1.5136364163    -1.0047544734     0.0149293899
    5      H      -1.5140274025     0.5299137805     0.8865890481
    6      H      -1.5159914458     0.5080070714    -0.8985498264
 ----------------------------------------------------------------
 Molecular Point Group                 C1    NOp =  1
 Largest Abelian Subgroup              C1    NOp =  1
 Nuclear Repulsion Energy =    56.4476540383 hartrees
 There are       13 alpha and       13 beta electrons
 Requested basis set is 6-311++G(d,p)
 There are 39 shells and 80 basis functions

 Total QAlloc Memory Limit   2000 MB
 Mega-Array Size       188 MB
 MEM_STATIC part       192 MB

finished with qalloc call

                       Distance Matrix (Angstroms)
             S (  1)   H (  2)   C (  3)   H (  4)   H (  5)
   H (  2)  1.335950
   C (  3)  1.815366  2.376325
   H (  4)  2.359951  3.283937  1.086389
   H (  5)  2.427566  2.658607  1.085437  1.764936
   H (  6)  2.428179  2.671070  1.085187  1.767172  1.785274

 Job number = 2, Threshold = 1.00E-08
Integral type ranges set in mkLRange.C for JobNum: 2  <1-21|1-21>
Symmetry turned off temporarily
 Using the largest function pair in Schwarz integrals
Total number of integrals generated =           35050
Symmetry turned back on
 A cutoff of  1.0D-08 yielded    766 shell pairs
 There are      3299 function pairs (      3472 Cartesian)
 Job number = 11, Threshold = 1.00E-08
Integral type ranges set in mkLRange.C for JobNum: 11  <1-21|22-22>
Total number of integrals generated =           20796
 Smallest overlap matrix eigenvalue = 4.10E-04
 Multipole matrices computed through 2nd order

 Scale SEOQF with 1.000000e-01/1.000000e-01/1.000000e-01

 Standard Electronic Orientation quadrupole field applied
 Nucleus-field energy     =     0.0000000009 hartrees
 ENuRep (before)= 56.4476540383
 ENucField = 0.0000000009
 ENuRep (after) = 56.4476540391
 Guess from superposition of atomic densities
 Warning:  Energy on first SCF cycle will be non-variational
 SAD guess density has 26.000000 electrons

 ==================================================
    GEN_SCFMAN: A general SCF calculation manager  
                                                   
    Authors:                                       
        -- Eric Jon Sundstrom 2008-2014            
        -- Paul Horn 2010-2015                     
        -- Yuezhi Mao 2012-                        
        -- Dmitri Zuev 2014                        
        -- Alec White 2015-                        
        -- David Stuck 2015                        
        -- Shaama M.S. 2015                        
        -- Shane Yost 2015-                         
        -- Joonho Lee 2016-                        
        -- David Small 2016-                       
        -- Daniel Levine 2016-                     
        -- Susi Lehtola 2017-                      
        -- Hugh Burton 2017-                       
 ==================================================
 Hartree-Fock
Finding J and K together
 Job number = 22, Threshold = 1.00E-08
Integral type ranges set in mkLRange.C for JobNum: 22  <1-21|1-21>
 MakeJK  time:  CPU       0.70 s  wall       0.87 s
 HF Exchange:              -31.54455375277105
 One-Electron:             -713.46518715715513
 Total Coulomb:            250.54987328973999
 Nuclear repulsion:         56.44765403914628
 A restricted SCF calculation will be
 performed using DIIS
 SCF converges when DIIS error is below 1.0e-05
 ---------------------------------------
  Cycle       Energy         DIIS error
 ---------------------------------------
Finding J and K together
 Job number = 22, Threshold = 1.00E-08
Integral type ranges set in mkLRange.C for JobNum: 22  <1-21|1-21>
 MakeJK  time:  CPU       1.40 s  wall       1.56 s
 HF Exchange:              -31.58441758232895
 One-Electron:             -715.37127299533665
 Total Coulomb:            252.79062382201042
 Nuclear repulsion:         56.44765403914628
    1    -438.0122135810      5.89e-02  
Finding J and K together
 Job number = 22, Threshold = 1.00E-08
Integral type ranges set in mkLRange.C for JobNum: 22  <1-21|1-21>
 MakeJK  time:  CPU       1.40 s  wall       1.44 s
 HF Exchange:              -31.62620535436107
 One-Electron:             -715.23449264395788
 Total Coulomb:            252.67383433738880
 Nuclear repulsion:         56.44765403914628
    2    -437.7174127165      4.27e-03  
Finding J and K together
 Job number = 22, Threshold = 1.00E-08
Integral type ranges set in mkLRange.C for JobNum: 22  <1-21|1-21>
 MakeJK  time:  CPU       0.90 s  wall       0.91 s
 HF Exchange:              -31.63933444554200
 One-Electron:             -715.31278355066479
 Total Coulomb:            252.76340333917670
 Nuclear repulsion:         56.44765403914628
    3    -437.7392096218      1.32e-03  
Finding J and K together
 Job number = 22, Threshold = 1.00E-08
Integral type ranges set in mkLRange.C for JobNum: 22  <1-21|1-21>
 MakeJK  time:  CPU       0.95 s  wall       0.95 s
 HF Exchange:              -31.64411379170757
 One-Electron:             -715.30443749521930
 Total Coulomb:            252.75956397506434
 Nuclear repulsion:         56.44765403914628
    4    -437.7410606179      4.61e-04  
Finding J and K together
 Job number = 22, Threshold = 1.00E-08
Integral type ranges set in mkLRange.C for JobNum: 22  <1-21|1-21>
 MakeJK  time:  CPU       1.14 s  wall       1.24 s
 HF Exchange:              -31.64428005919536
 One-Electron:             -715.29361142633036
 Total Coulomb:            252.74888545382200
 Nuclear repulsion:         56.44765403914628
    5    -437.7413332727      1.08e-04  
Finding J and K together
 Job number = 22, Threshold = 1.00E-08
Integral type ranges set in mkLRange.C for JobNum: 22  <1-21|1-21>
 MakeJK  time:  CPU       1.22 s  wall       1.28 s
 HF Exchange:              -31.64471618347043
 One-Electron:             -715.29638280449342
 Total Coulomb:            252.75209141064227
 Nuclear repulsion:         56.44765403914628
    6    -437.7413519926      2.78e-05  
    7    -437.7413535382      7.46e-06  Convergence criterion met
 ---------------------------------------
 SCF time:   CPU 7.83s  wall 9.00s 
 Total energy in the final basis set =     -437.7413535382
 HF Exchange:              -31.64471618347043
 One-Electron:             -715.29638280449342
 Total Coulomb:            252.75209141064227
 Nuclear repulsion:         56.44765403914628
Wall  1 = 9
Clock 1 = 7.85977315902710
 ==================================================
                  Done GEN_SCFMAN                  
 ==================================================

Symmetry turned off temporarily

 --------------------------------------------------------------

                    Orbital Energies (a.u.)
 --------------------------------------------------------------

 Alpha MOs
 -- Occupied --
-91.953 -11.259  -8.955  -6.638  -6.637  -6.635  -1.041  -0.870
 -0.611  -0.595  -0.530  -0.460  -0.357
 -- Virtual --
  0.040   0.058   0.072   0.076   0.107   0.122   0.125   0.143
  0.165   0.165   0.190   0.198   0.223   0.252   0.288   0.290
  0.381   0.443   0.454   0.469   0.529   0.548   0.596   0.701
  0.836   0.845   0.870   0.911   0.965   0.976   1.031   1.033
  1.228   1.256   1.357   1.360   1.701   1.711   1.744   1.801
  1.847   1.914   1.929   1.970   2.102   2.103   2.184   2.298
  2.447   2.483   2.517   2.778   2.790   2.806   2.889   2.894
  2.967   3.204   3.581   4.133   4.147   8.525  18.410  18.470
 18.509  25.074 192.370
 --------------------------------------------------------------

          Ground-State Mulliken Net Atomic Charges

     Atom                 Charge (a.u.)
  ----------------------------------------
      1 S                     0.042647
      2 H                     0.006051
      3 C                    -0.478497
      4 H                     0.152518
      5 H                     0.138704
      6 H                     0.138577
  ----------------------------------------
  Sum of atomic charges =     0.000000

 -----------------------------------------------------------------
                    Cartesian Multipole Moments
 -----------------------------------------------------------------
    Charge (ESU x 10^10)
                 0.0000
    Dipole Moment (Debye)
         X      -1.4972      Y       0.9871      Z       0.0024
       Tot       1.7933
    Quadrupole Moments (Debye-Ang)
        XX     -20.5837     XY       1.4905     YY     -19.5659
        XZ      -0.0017     YZ      -0.0001     ZZ     -22.9370
    Octopole Moments (Debye-Ang^2)
       XXX       0.0683    XXY       1.5763    XYY      -0.2369
       YYY       0.9234    XXZ       0.0093    XYZ       0.0081
       YYZ       0.0304    XZZ      -2.9562    YZZ       1.2656
       ZZZ      -0.0265
    Hexadecapole Moments (Debye-Ang^3)
      XXXX    -135.1635   XXXY       2.8420   XXYY     -27.6439
      XYYY       3.5902   YYYY     -35.8054   XXXZ      -0.0032
      XXYZ      -0.0097   XYYZ      -0.0446   YYYZ      -0.0007
      XXZZ     -29.5962   XYZZ      -0.4268   YYZZ     -12.7502
      XZZZ       0.0412   YZZZ       0.0023   ZZZZ     -38.0053
 -----------------------------------------------------------------
 Mayer SCF Bond Order, atomic valence on the diagonal:

            1           2           3           4           5           6
    1   1.6881190   0.9617386   0.7539044  -0.0165640  -0.0056670  -0.0052931
    2   0.9617386   0.9779173   0.0011350   0.0071787   0.0039655   0.0038995
    3   0.7539044   0.0011350   3.6745882   0.9689896   0.9752474   0.9753117
    4  -0.0165640   0.0071787   0.9689896   0.9171660  -0.0212767  -0.0211616
    5  -0.0056670   0.0039655   0.9752474  -0.0212767   0.9314117  -0.0208576
    6  -0.0052931   0.0038995   0.9753117  -0.0211616  -0.0208576   0.9318990


 JobOver = TRUE
Archival summary:
1\1\qciep03\SP\HF\BasisUnspecified\114\jcartus\ThuFeb111:53:242018ThuFeb111:53:242018\0\\#,HF,BasisUnspecified,\\0,1\S\H,1,1.33595\C,1,1.81537,2,96.7083\H,3,1.08519,1,111.17,2,62.6158,0\H,3,1.08544,1,111.11,2,-61.108,0\H,3,1.08639,1,106.096,2,-179.098,0\\HF=-437.741354\\@

 Total job time:  8.65s(wall), 8.04s(cpu) 
 Thu Feb  1 11:53:24 2018

        *************************************************************
        *                                                           *
        *  Thank you very much for using Q-Chem.  Have a nice day.  *
        *                                                           *
        *************************************************************


*** MISSION COMPLETED -- STARFLEET OUT ***

0 sent ACK to 0 
now end server 0 ... 
