Process 0 of 1 is on qciep03 - thread support 0
initial socket setup ...start
initial socket setup ...done 
now start server 0 ... 
qciep03.tugraz.at 127.0.1
Q-Chem Developer Version! Running on 127.0.1.*
                  Welcome to Q-Chem
     A Quantum Leap Into The Future Of Chemistry


 Q-Chem 5.0, Q-Chem, Inc., Pleasanton, CA (2017)

 Yihan Shao,  Zhengting Gan,  E. Epifanovsky,  A. T. B. Gilbert,  M. Wormit,  
 J. Kussmann,  A. W. Lange,  A. Behn,  Jia Deng,  Xintian Feng,  D. Ghosh,  
 M. Goldey,  P. R. Horn,  L. D. Jacobson,  I. Kaliman,  T. Kus,  A. Landau,  
 Jie Liu,  E. I. Proynov,  R. M. Richard,  R. P. Steele,  E. J. Sundstrom,  
 H. L. Woodcock III,  P. M. Zimmerman,  D. Zuev,  B. Albrecht,  E. Alguire,  
 S. A. Baeppler,  D. Barton,  Z. Benda,  Y. A. Bernard,  E. J. Berquist,  
 K. B. Bravaya,  H. Burton,  D. Casanova,  Chun-Min Chang,  Yunqing Chen,  
 A. Chien,  K. D. Closser,  M. P. Coons,  S. Dasgupta,  A. L. Dempwolff,  
 M. Diedenhofen,  Hainam Do,  R. G. Edgar,  Po-Tung Fang,  S. Fatehi,  
 Qingguo Feng,  J. Fosso-Tande,  Qinghui Ge,  A. Ghysels,  G. Gidofalvi,  
 J. Gomes,  J. Gonthier,  A. Gunina,  M. W. D. Hanson-Heine,  
 P. H. P. Harbach,  A. W. Hauser,  J. E. Herr,  E. G. Hohenstein,  
 Z. C. Holden,  Kerwin Hui,  T.-C. Jagau,  Hyunjun Ji,  B. Kaduk,  
 K. Khistyaev,  Jaehoon Kim,  P. Klunzinger,  K. Koh,  D. Kosenkov,  
 L. Koulias,  T. Kowalczyk,  C. M. Krauter,  A. Kunitsa,  Ka Un Lao,  
 A. Laurent,  K. V. Lawler,  Joonho Lee,  D. Lefrancois,  S. Lehtola,  
 D. S. Levine,  Yi-Pei Li,  You-Sheng Lin,  Fenglai Liu,  E. Livshits,  
 A. Luenser,  P. Manohar,  E. Mansoor,  S. F. Manzer,  Shan-Ping Mao,  
 Yuezhi Mao,  N. Mardirossian,  A. V. Marenich,  T. Markovich,  
 L. A. Martinez-Martinez,  S. A. Maurer,  N. J. Mayhall,  S. C. McKenzie,  
 J.-M. Mewes,  A. F. Morrison,  J. W. Mullinax,  K. Nanda,  
 T. S. Nguyen-Beck,  R. Olivares-Amaya,  J. A. Parkhill,  T. M. Perrine,  
 F. Plasser,  S. Prager,  A. Prociuk,  E. Ramos,  D. R. Rehn,  F. Rob,  
 M. Schneider,  N. Sergueev,  S. M. Sharada,  S. Sharma,  D. W. Small,  
 T. Stauch,  T. Stein,  Yu-Chuan Su,  A. J. W. Thom,  A. Tkatchenko,  
 T. Tsuchimochi,  L. Vogt,  O. Vydrov,  M. A. Watson,  J. Wenzel,  
 M. de Wergifosse,  T. A. Wesolowski,  A. White,  J. Witte,  A. Yamada,  
 Jun Yang,  K. Yao,  S. Yeganeh,  S. R. Yost,  Zhi-Qiang You,  A. Zech,  
 Igor Ying Zhang,  Xing Zhang,  Yan Zhao,  Ying Zhu,  B. R. Brooks,  
 G. K. L. Chan,  C. J. Cramer,  M. S. Gordon,  W. J. Hehre,  A. Klamt,  
 M. W. Schmidt,  C. D. Sherrill,  D. G. Truhlar,  A. Aspuru-Guzik,  R. Baer,  
 A. T. Bell,  N. A. Besley,  Jeng-Da Chai,  R. A. DiStasio Jr.,  A. Dreuw,  
 B. D. Dunietz,  T. R. Furlani,  Chao-Ping Hsu,  Yousung Jung,  Jing Kong,  
 D. S. Lambrecht,  WanZhen Liang,  C. Ochsenfeld,  V. A. Rassolov,  
 L. V. Slipchenko,  J. E. Subotnik,  T. Van Voorhis,  J. M. Herbert,  
 A. I. Krylov,  P. M. W. Gill,  M. Head-Gordon

 Contributors to earlier versions of Q-Chem not listed above: 
 R. D. Adamson,  B. Austin,  J. Baker,  G. J. O. Beran,  K. Brandhorst,  
 S. T. Brown,  E. F. C. Byrd,  A. K. Chakraborty,  C.-L. Cheng,  
 Siu Hung Chien,  D. M. Chipman,  D. L. Crittenden,  H. Dachsel,  
 R. J. Doerksen,  A. D. Dutoi,  L. Fusti-Molnar,  W. A. Goddard III,  
 A. Golubeva-Zadorozhnaya,  S. R. Gwaltney,  G. Hawkins,  A. Heyden,  
 S. Hirata,  G. Kedziora,  F. J. Keil,  C. Kelley,  Jihan Kim,  R. A. King,  
 R. Z. Khaliullin,  P. P. Korambath,  W. Kurlancheek,  A. M. Lee,  M. S. Lee,  
 S. V. Levchenko,  Ching Yeh Lin,  D. Liotard,  R. C. Lochan,  I. Lotan,  
 P. E. Maslen,  N. Nair,  D. P. O'Neill,  D. Neuhauser,  E. Neuscamman,  
 C. M. Oana,  R. Olson,  B. Peters,  R. Peverati,  P. A. Pieniazek,  
 Y. M. Rhee,  J. Ritchie,  M. A. Rohrdanz,  E. Rosta,  N. J. Russ,  
 H. F. Schaefer III,  N. E. Schultz,  N. Shenvi,  A. C. Simmonett,  A. Sodt,  
 D. Stuck,  K. S. Thanthiriwatte,  V. Vanovschi,  Tao Wang,  A. Warshel,  
 C. F. Williams,  Q. Wu,  X. Xu,  W. Zhang

 Please cite Q-Chem as follows:
 Y. Shao et al., Mol. Phys. 113, 184-215 (2015)
 DOI: 10.1080/00268976.2014.952696

 Q-Chem 5.0.2 for Intel X86 EM64T Linux

 Parts of Q-Chem use Armadillo 5.200.1 (Boston Tea Smuggler).
 http://arma.sourceforge.net/

 Q-Chem begins on Thu Jan 25 17:22:06 2018  


Host: 0

     Scratch files written to /home/jcartus/scratch/Ammonia-dimer_mono1.dir//
 Using version located at /usr/local/qchem/bin/qchem

 Parallel job on  1  processors

Total Memory Limit in MB = 2000
Mega-Array Size in MB = 192

Checking the input file for inconsistencies... 	...done.
Finally everything over in PARseQInput

--------------------------------------------------------------
User input:
--------------------------------------------------------------
$rem
SCF_PRINT                     1
BASIS                         6-311++g**
SCF_SAVE_MATRICES             1
SCF_CONVERGENCE               5
SCF_FINAL_PRINT               1
METHOD                        hf
JOBTYPE                       sp
$end

$molecule
0 1
N    1.578718    0.046611    0.0
H    2.158621    -0.136396    -0.809565
H    0.849471    -0.658193    0.0
H    2.158621    -0.136396    0.809565
$end


--------------------------------------------------------------
 I, IOp=           1           2  D=   3.9049492770808177E-017 Fix sym
 I,J,IOp=           2           4           2  D=   4.9851362774542769E-014 Fix sym
 I, IOp=           3           2  D=   4.9808216433159122E-014 Fix sym
 ----------------------------------------------------------------
             Standard Nuclear Orientation (Angstroms)
    I     Atom           X                Y                Z
 ----------------------------------------------------------------
    1      N      -0.0004558817    -0.1154128008    -0.0000000000
    2      H       0.4708324761     0.2688609756     0.8095650000
    3      H      -0.9384737803     0.2701676543    -0.0000000000
    4      H       0.4708324761     0.2688609756    -0.8095650000
 ----------------------------------------------------------------
 Molecular Point Group                 Cs    NOp =  2
 Largest Abelian Subgroup              Cs    NOp =  2
 Nuclear Repulsion Energy =    11.9474317738 hartrees
 There are        5 alpha and        5 beta electrons
 Requested basis set is 6-311++G(d,p)
 There are 21 shells and 43 basis functions

 Total QAlloc Memory Limit   2000 MB
 Mega-Array Size       188 MB
 MEM_STATIC part       192 MB

finished with qalloc call

                       Distance Matrix (Angstroms)
             N (  1)   H (  2)   H (  3)
   H (  2)  1.012509
   H (  3)  1.014174  1.625282
   H (  4)  1.012509  1.619130  1.625282

 Job number = 2, Threshold = 1.00E-08
Integral type ranges set in mkLRange.C for JobNum: 2  <1-21|1-21>
Symmetry turned off temporarily
 Using the largest function pair in Schwarz integrals
Total number of integrals generated =           11088
Symmetry turned back on
 A cutoff of  1.0D-08 yielded    231 shell pairs
 There are       989 function pairs (      1038 Cartesian)
 Job number = 11, Threshold = 1.00E-08
Integral type ranges set in mkLRange.C for JobNum: 11  <1-21|22-22>
Total number of integrals generated =            3116
 Smallest overlap matrix eigenvalue = 2.43E-03
 Multipole matrices computed through 2nd order

 Scale SEOQF with 1.000000e-01/1.000000e-01/1.000000e-01

 Standard Electronic Orientation quadrupole field applied
 ENuRep (before)= 11.947432
 ENucField = -0.000000
 ENuRep (after) = 11.947432
 Guess from superposition of atomic densities
 Warning:  Energy on first SCF cycle will be non-variational
 SAD guess density has 10.000000 electrons

 ==================================================
    GEN_SCFMAN: A general SCF calculation manager  
                                                   
    Authors:                                       
        -- Eric Jon Sundstrom 2008-2014            
        -- Paul Horn 2010-2015                     
        -- Yuezhi Mao 2012-                        
        -- Dmitri Zuev 2014                        
        -- Alec White 2015-                        
        -- David Stuck 2015                        
        -- Shaama M.S. 2015                        
        -- Shane Yost 2015-                         
        -- Joonho Lee 2016-                        
        -- David Small 2016-                       
        -- Daniel Levine 2016-                     
        -- Susi Lehtola 2017-                      
        -- Hugh Burton 2017-                       
 ==================================================
 Hartree-Fock
Finding J and K together
 Job number = 22, Threshold = 1.00E-08
Integral type ranges set in mkLRange.C for JobNum: 22  <1-21|1-21>
 MakeJK  time:  CPU       0.14 s  wall       0.18 s
 HF Exchange:               -7.48580268790682
 One-Electron:             -98.35150968412381
 Total Coulomb:             37.69288579594340
 Nuclear repulsion:         11.94743177372373
 A restricted SCF calculation will be
 performed using DIIS
 SCF converges when DIIS error is below 1.0e-05
 ---------------------------------------
  Cycle       Energy         DIIS error
 ---------------------------------------
Finding J and K together
 Job number = 22, Threshold = 1.00E-08
Integral type ranges set in mkLRange.C for JobNum: 22  <1-21|1-21>
 MakeJK  time:  CPU       0.17 s  wall       0.21 s
 HF Exchange:               -7.71227591665060
 One-Electron:             -100.11446667516208
 Total Coulomb:             39.68690566914581
 Nuclear repulsion:         11.94743177372373
    1     -56.1969948024      8.89e-02  
Finding J and K together
 Job number = 22, Threshold = 1.00E-08
Integral type ranges set in mkLRange.C for JobNum: 22  <1-21|1-21>
 MakeJK  time:  CPU       0.17 s  wall       0.19 s
 HF Exchange:               -7.61227307665958
 One-Electron:             -99.20114907755260
 Total Coulomb:             38.65568637324422
 Nuclear repulsion:         11.94743177372373
    2     -56.1924051489      9.85e-03  
Finding J and K together
 Job number = 22, Threshold = 1.00E-08
Integral type ranges set in mkLRange.C for JobNum: 22  <1-21|1-21>
 MakeJK  time:  CPU       0.17 s  wall       0.20 s
 HF Exchange:               -7.66897515547688
 One-Electron:             -99.62089789386309
 Total Coulomb:             39.12841621836598
 Nuclear repulsion:         11.94743177372373
    3     -56.2103040072      4.55e-03  
Finding J and K together
 Job number = 22, Threshold = 1.00E-08
Integral type ranges set in mkLRange.C for JobNum: 22  <1-21|1-21>
 MakeJK  time:  CPU       0.17 s  wall       0.31 s
 HF Exchange:               -7.66468417392502
 One-Electron:             -99.56932089251328
 Total Coulomb:             39.07234830587823
 Nuclear repulsion:         11.94743177372373
    4     -56.2140250573      8.04e-04  
Finding J and K together
 Job number = 22, Threshold = 1.00E-08
Integral type ranges set in mkLRange.C for JobNum: 22  <1-21|1-21>
 MakeJK  time:  CPU       0.17 s  wall       0.22 s
 HF Exchange:               -7.66604098973064
 One-Electron:             -99.57482295420641
 Total Coulomb:             39.07919360637678
 Nuclear repulsion:         11.94743177372373
    5     -56.2142249868      1.65e-04  
Finding J and K together
 Job number = 22, Threshold = 1.00E-08
Integral type ranges set in mkLRange.C for JobNum: 22  <1-21|1-21>
 MakeJK  time:  CPU       0.18 s  wall       0.20 s
 HF Exchange:               -7.66612273594912
 One-Electron:             -99.57491393328465
 Total Coulomb:             39.07936547057250
 Nuclear repulsion:         11.94743177372373
    6     -56.2142385638      3.23e-05  
    7     -56.2142394249      8.48e-06  Convergence criterion met
 ---------------------------------------
 SCF time:   CPU 1.20s  wall 2.00s 
 Total energy in the final basis set =      -56.2142394249
 HF Exchange:               -7.66612273594912
 One-Electron:             -99.57491393328465
 Total Coulomb:             39.07936547057250
 Nuclear repulsion:         11.94743177372373
Wall  1 = 2
Clock 1 = 1.20743203163147
 ==================================================
                  Done GEN_SCFMAN                  
 ==================================================

Symmetry turned off temporarily

 --------------------------------------------------------------
             Orbital Energies (a.u.) and Symmetries
 --------------------------------------------------------------

 Alpha MOs, Restricted
 -- Occupied --                  
-15.542  -1.144  -0.630  -0.629  -0.429
  1 A'    2 A'    3 A'    1 A"    4 A'                                         
 -- Virtual --                   
  0.043   0.074   0.074   0.178   0.220   0.220   0.243   0.310
  5 A'    6 A'    2 A"    7 A'    3 A"    8 A'    9 A'   10 A'                 
  0.310   0.330   0.653   0.654   0.824   0.989   1.033   1.034
  4 A"   11 A'    5 A"   12 A'   13 A'   14 A'   15 A'    6 A"                 
  1.239   1.348   1.351   1.794   1.822   1.947   1.951   2.219
 16 A'   17 A'    7 A"    8 A"   18 A'   19 A'    9 A"   10 A"                 
  2.220   2.624   2.792   2.794   2.968   2.992   2.994   3.181
 20 A'   21 A'   22 A'   11 A"   23 A'   12 A"   24 A'   25 A'                 
  3.488   3.493   4.539   5.218   5.220  37.055
 26 A'   13 A"   27 A'   14 A"   28 A'   29 A'                                 

 Beta MOs, Restricted
 -- Occupied --                  
-15.542  -1.144  -0.630  -0.629  -0.429
  1 A'    2 A'    3 A'    1 A"    4 A'                                         
 -- Virtual --                   
  0.043   0.074   0.074   0.178   0.220   0.220   0.243   0.310
  5 A'    6 A'    2 A"    7 A'    3 A"    8 A'    9 A'   10 A'                 
  0.310   0.330   0.653   0.654   0.824   0.989   1.033   1.034
  4 A"   11 A'    5 A"   12 A'   13 A'   14 A'   15 A'    6 A"                 
  1.239   1.348   1.351   1.794   1.822   1.947   1.951   2.219
 16 A'   17 A'    7 A"    8 A"   18 A'   19 A'    9 A"   10 A"                 
  2.220   2.624   2.792   2.794   2.968   2.992   2.994   3.181
 20 A'   21 A'   22 A'   11 A"   23 A'   12 A"   24 A'   25 A'                 
  3.488   3.493   4.539   5.218   5.220  37.055
 26 A'   13 A"   27 A'   14 A"   28 A'   29 A'                                 
 --------------------------------------------------------------

          Ground-State Mulliken Net Atomic Charges

     Atom                 Charge (a.u.)
  ----------------------------------------
      1 N                    -0.675012
      2 H                     0.224800
      3 H                     0.225413
      4 H                     0.224800
  ----------------------------------------
  Sum of atomic charges =    -0.000000

 -----------------------------------------------------------------
                    Cartesian Multipole Moments
 -----------------------------------------------------------------
    Charge (ESU x 10^10)
                 0.0000
    Dipole Moment (Debye)
         X       0.0057      Y       1.8285      Z       0.0000
       Tot       1.8286
    Quadrupole Moments (Debye-Ang)
        XX      -6.1934     XY      -0.0004     YY      -9.3952
        XZ       0.0000     YZ       0.0000     ZZ      -6.2224
    Octopole Moments (Debye-Ang^2)
       XXX      -0.9060    XXY       0.9876    XYY       0.0040
       YYY       1.7931    XXZ      -0.0000    XYZ       0.0000
       YYZ       0.0000    XZZ       0.9133    YZZ       0.9788
       ZZZ       0.0000
    Hexadecapole Moments (Debye-Ang^3)
      XXXX      -9.9334   XXXY      -0.3720   XXYY      -3.8675
      XYYY       0.0002   YYYY     -12.9348   XXXZ      -0.0000
      XXYZ       0.0000   XYYZ      -0.0000   YYYZ       0.0000
      XXZZ      -3.3086   XYZZ       0.3706   YYZZ      -3.8658
      XZZZ      -0.0000   YZZZ       0.0000   ZZZZ      -9.9382
 -----------------------------------------------------------------
 Mayer SCF Bond Order, atomic valence on the diagonal:

            1           2           3           4
    1   2.8873249   0.9625014   0.9623220   0.9625014
    2   0.9625014   0.9463896  -0.0079381  -0.0081738
    3   0.9623220  -0.0079381   0.9464459  -0.0079381
    4   0.9625014  -0.0081738  -0.0079381   0.9463896


 JobOver = TRUE
Archival summary:
1\1\qciep03\SP\HF\BasisUnspecified\13\jcartus\ThuJan2517:22:082018ThuJan2517:22:082018\0\\#,HF,BasisUnspecified,\\0,1\N\H,1,1.01251\H,1,1.01251,2,106.177\H,1,1.01417,2,106.632,3,113.434,0\\HF=-56.2142394\\@

 Total job time:  2.05s(wall), 1.31s(cpu) 
 Thu Jan 25 17:22:08 2018

        *************************************************************
        *                                                           *
        *  Thank you very much for using Q-Chem.  Have a nice day.  *
        *                                                           *
        *************************************************************


*** MISSION COMPLETED -- STARFLEET OUT ***

0 sent ACK to 0 
now end server 0 ... 
