Process 0 of 1 is on qciep03 - thread support 0
initial socket setup ...start
initial socket setup ...done 
now start server 0 ... 
qciep03.tugraz.at 127.0.1
Q-Chem Developer Version! Running on 127.0.1.*
                  Welcome to Q-Chem
     A Quantum Leap Into The Future Of Chemistry


 Q-Chem 5.0, Q-Chem, Inc., Pleasanton, CA (2017)

 Yihan Shao,  Zhengting Gan,  E. Epifanovsky,  A. T. B. Gilbert,  M. Wormit,  
 J. Kussmann,  A. W. Lange,  A. Behn,  Jia Deng,  Xintian Feng,  D. Ghosh,  
 M. Goldey,  P. R. Horn,  L. D. Jacobson,  I. Kaliman,  T. Kus,  A. Landau,  
 Jie Liu,  E. I. Proynov,  R. M. Richard,  R. P. Steele,  E. J. Sundstrom,  
 H. L. Woodcock III,  P. M. Zimmerman,  D. Zuev,  B. Albrecht,  E. Alguire,  
 S. A. Baeppler,  D. Barton,  Z. Benda,  Y. A. Bernard,  E. J. Berquist,  
 K. B. Bravaya,  H. Burton,  D. Casanova,  Chun-Min Chang,  Yunqing Chen,  
 A. Chien,  K. D. Closser,  M. P. Coons,  S. Dasgupta,  A. L. Dempwolff,  
 M. Diedenhofen,  Hainam Do,  R. G. Edgar,  Po-Tung Fang,  S. Fatehi,  
 Qingguo Feng,  J. Fosso-Tande,  Qinghui Ge,  A. Ghysels,  G. Gidofalvi,  
 J. Gomes,  J. Gonthier,  A. Gunina,  M. W. D. Hanson-Heine,  
 P. H. P. Harbach,  A. W. Hauser,  J. E. Herr,  E. G. Hohenstein,  
 Z. C. Holden,  Kerwin Hui,  T.-C. Jagau,  Hyunjun Ji,  B. Kaduk,  
 K. Khistyaev,  Jaehoon Kim,  P. Klunzinger,  K. Koh,  D. Kosenkov,  
 L. Koulias,  T. Kowalczyk,  C. M. Krauter,  A. Kunitsa,  Ka Un Lao,  
 A. Laurent,  K. V. Lawler,  Joonho Lee,  D. Lefrancois,  S. Lehtola,  
 D. S. Levine,  Yi-Pei Li,  You-Sheng Lin,  Fenglai Liu,  E. Livshits,  
 A. Luenser,  P. Manohar,  E. Mansoor,  S. F. Manzer,  Shan-Ping Mao,  
 Yuezhi Mao,  N. Mardirossian,  A. V. Marenich,  T. Markovich,  
 L. A. Martinez-Martinez,  S. A. Maurer,  N. J. Mayhall,  S. C. McKenzie,  
 J.-M. Mewes,  A. F. Morrison,  J. W. Mullinax,  K. Nanda,  
 T. S. Nguyen-Beck,  R. Olivares-Amaya,  J. A. Parkhill,  T. M. Perrine,  
 F. Plasser,  S. Prager,  A. Prociuk,  E. Ramos,  D. R. Rehn,  F. Rob,  
 M. Schneider,  N. Sergueev,  S. M. Sharada,  S. Sharma,  D. W. Small,  
 T. Stauch,  T. Stein,  Yu-Chuan Su,  A. J. W. Thom,  A. Tkatchenko,  
 T. Tsuchimochi,  L. Vogt,  O. Vydrov,  M. A. Watson,  J. Wenzel,  
 M. de Wergifosse,  T. A. Wesolowski,  A. White,  J. Witte,  A. Yamada,  
 Jun Yang,  K. Yao,  S. Yeganeh,  S. R. Yost,  Zhi-Qiang You,  A. Zech,  
 Igor Ying Zhang,  Xing Zhang,  Yan Zhao,  Ying Zhu,  B. R. Brooks,  
 G. K. L. Chan,  C. J. Cramer,  M. S. Gordon,  W. J. Hehre,  A. Klamt,  
 M. W. Schmidt,  C. D. Sherrill,  D. G. Truhlar,  A. Aspuru-Guzik,  R. Baer,  
 A. T. Bell,  N. A. Besley,  Jeng-Da Chai,  R. A. DiStasio Jr.,  A. Dreuw,  
 B. D. Dunietz,  T. R. Furlani,  Chao-Ping Hsu,  Yousung Jung,  Jing Kong,  
 D. S. Lambrecht,  WanZhen Liang,  C. Ochsenfeld,  V. A. Rassolov,  
 L. V. Slipchenko,  J. E. Subotnik,  T. Van Voorhis,  J. M. Herbert,  
 A. I. Krylov,  P. M. W. Gill,  M. Head-Gordon

 Contributors to earlier versions of Q-Chem not listed above: 
 R. D. Adamson,  B. Austin,  J. Baker,  G. J. O. Beran,  K. Brandhorst,  
 S. T. Brown,  E. F. C. Byrd,  A. K. Chakraborty,  C.-L. Cheng,  
 Siu Hung Chien,  D. M. Chipman,  D. L. Crittenden,  H. Dachsel,  
 R. J. Doerksen,  A. D. Dutoi,  L. Fusti-Molnar,  W. A. Goddard III,  
 A. Golubeva-Zadorozhnaya,  S. R. Gwaltney,  G. Hawkins,  A. Heyden,  
 S. Hirata,  G. Kedziora,  F. J. Keil,  C. Kelley,  Jihan Kim,  R. A. King,  
 R. Z. Khaliullin,  P. P. Korambath,  W. Kurlancheek,  A. M. Lee,  M. S. Lee,  
 S. V. Levchenko,  Ching Yeh Lin,  D. Liotard,  R. C. Lochan,  I. Lotan,  
 P. E. Maslen,  N. Nair,  D. P. O'Neill,  D. Neuhauser,  E. Neuscamman,  
 C. M. Oana,  R. Olson,  B. Peters,  R. Peverati,  P. A. Pieniazek,  
 Y. M. Rhee,  J. Ritchie,  M. A. Rohrdanz,  E. Rosta,  N. J. Russ,  
 H. F. Schaefer III,  N. E. Schultz,  N. Shenvi,  A. C. Simmonett,  A. Sodt,  
 D. Stuck,  K. S. Thanthiriwatte,  V. Vanovschi,  Tao Wang,  A. Warshel,  
 C. F. Williams,  Q. Wu,  X. Xu,  W. Zhang

 Please cite Q-Chem as follows:
 Y. Shao et al., Mol. Phys. 113, 184-215 (2015)
 DOI: 10.1080/00268976.2014.952696

 Q-Chem 5.0.2 for Intel X86 EM64T Linux

 Parts of Q-Chem use Armadillo 5.200.1 (Boston Tea Smuggler).
 http://arma.sourceforge.net/

 Q-Chem begins on Thu Feb  1 11:57:14 2018  


Host: 0

     Scratch files written to /home/jcartus/scratch/32_trichlorometOH-wat.dir//
 Using version located at /usr/local/qchem/bin/qchem

 Parallel job on  1  processors

Total Memory Limit in MB = 2000
Mega-Array Size in MB = 192

Checking the input file for inconsistencies... 	...done.
Finally everything over in PARseQInput

--------------------------------------------------------------
User input:
--------------------------------------------------------------
$rem
SCF_PRINT                     1
BASIS                         6-311++g**
SCF_SAVE_MATRICES             1
SCF_CONVERGENCE               5
SCF_FINAL_PRINT               1
METHOD                        hf
JOBTYPE                       sp
$end

$molecule
0 1
O    -0.778073626    0.205937567    -0.003744167
H    0.20462177    0.306150037    -0.005250247
C    -1.064673043    -1.099865265    -3.7626e-05
Cl    -2.818149715    -1.288073131    0.00234012
Cl    -0.388554792    -1.946140752    -1.447422763
Cl    -0.385461107    -1.938612521    1.450299192
O    1.949794791    0.377735879    -0.007230776
H    2.320041419    -0.082316123    -0.765476382
H    2.321048106    -0.079135932    0.75248655
$end


--------------------------------------------------------------
 ----------------------------------------------------------------
             Standard Nuclear Orientation (Angstroms)
    I     Atom           X                Y                Z
 ----------------------------------------------------------------
    1      O       0.3615975146     0.0000565298     1.3407758257
    2      H       1.3260729816     0.0001784489     1.1274167212
    3      C      -0.3204588212     0.0000179260     0.1909614261
    4      Cl     -2.0443730116     0.0001340311     0.5627518839
    5      Cl      0.0585381818     1.4487852978    -0.8217953059
    6      Cl      0.0583549240    -1.4489480760    -0.8216097420
    7      O       3.0054906180    -0.0000271354     0.6475066373
    8      H       3.2140259242     0.7589668991     0.0960468556
    9      H       3.2131073584    -0.7589993578     0.0956119500
 ----------------------------------------------------------------
 Molecular Point Group                 C1    NOp =  1
 Largest Abelian Subgroup              C1    NOp =  1
 Nuclear Repulsion Energy =   469.8793788622 hartrees
 There are       38 alpha and       38 beta electrons
 Requested basis set is 6-311++G(d,p)
 There are 72 shells and 177 basis functions

 Total QAlloc Memory Limit   2000 MB
 Mega-Array Size       188 MB
 MEM_STATIC part       192 MB

finished with qalloc call

                       Distance Matrix (Angstroms)
             O (  1)   H (  2)   C (  3)   Cl(  4)   Cl(  5)   Cl(  6)
   H (  2)  0.987793
   C (  3)  1.336890  1.894206
   Cl(  4)  2.528639  3.417419  1.763550
   Cl(  5)  2.620567  2.739440  1.807828  2.904789
   Cl(  6)  2.620588  2.739668  1.807845  2.904782  2.897733
   O (  7)  2.733275  1.746642  3.357138  5.050575  3.597559  3.597678
   H (  8)  3.203380  2.281195  3.616296  5.333329  3.357884  3.959197
   H (  9)  3.202766  2.280761  3.615424  5.332504  3.958188  3.357050
             O (  7)   H (  8)
   H (  8)  0.961076
   H (  9)  0.961109  1.517967

 Job number = 2, Threshold = 1.00E-08
Integral type ranges set in mkLRange.C for JobNum: 2  <1-21|1-21>
Symmetry turned off temporarily
 Using the largest function pair in Schwarz integrals
Total number of integrals generated =          188187
Symmetry turned back on
 A cutoff of  1.0D-08 yielded   2093 shell pairs
 There are     13360 function pairs (     14277 Cartesian)
 Job number = 11, Threshold = 1.00E-08
Integral type ranges set in mkLRange.C for JobNum: 11  <1-21|22-22>
Total number of integrals generated =          128223
 Smallest overlap matrix eigenvalue = 4.90E-05

 Q-Chem warning in module /usr/local/qchem/stvman/mkSTV.C, line 295:

 Overlap eigenvalue is smaller than square root of threshold

 Multipole matrices computed through 2nd order

 Scale SEOQF with 1.000000e-01/1.000000e-01/1.000000e-01

 Standard Electronic Orientation quadrupole field applied
 Nucleus-field energy     =     0.0000000061 hartrees
 ENuRep (before)= 469.8793788622
 ENucField = 0.0000000061
 ENuRep (after) = 469.8793788682
 Guess from superposition of atomic densities
 Warning:  Energy on first SCF cycle will be non-variational
 SAD guess density has 76.000000 electrons

 ==================================================
    GEN_SCFMAN: A general SCF calculation manager  
                                                   
    Authors:                                       
        -- Eric Jon Sundstrom 2008-2014            
        -- Paul Horn 2010-2015                     
        -- Yuezhi Mao 2012-                        
        -- Dmitri Zuev 2014                        
        -- Alec White 2015-                        
        -- David Stuck 2015                        
        -- Shaama M.S. 2015                        
        -- Shane Yost 2015-                         
        -- Joonho Lee 2016-                        
        -- David Small 2016-                       
        -- Daniel Levine 2016-                     
        -- Susi Lehtola 2017-                      
        -- Hugh Burton 2017-                       
 ==================================================
 Hartree-Fock
Finding J and K together
 Job number = 22, Threshold = 1.00E-08
Integral type ranges set in mkLRange.C for JobNum: 22  <1-21|1-21>
 MakeJK  time:  CPU       5.98 s  wall       5.99 s
 HF Exchange:              -105.22141885066820
 One-Electron:             -3100.44396043468305
 Total Coulomb:            1166.96968458720744
 Nuclear repulsion:        469.87937886824596
 A restricted SCF calculation will be
 performed using DIIS
 SCF converges when DIIS error is below 1.0e-05
 ---------------------------------------
  Cycle       Energy         DIIS error
 ---------------------------------------
Finding J and K together
 Job number = 22, Threshold = 1.00E-08
Integral type ranges set in mkLRange.C for JobNum: 22  <1-21|1-21>
 MakeJK  time:  CPU      16.09 s  wall      16.12 s
 HF Exchange:              -105.50422322198685
 One-Electron:             -3100.13021849541747
 Total Coulomb:            1168.05000867596641
 Nuclear repulsion:        469.87937886824596
    1   -1568.8163158299      4.15e-02  
Finding J and K together
 Job number = 22, Threshold = 1.00E-08
Integral type ranges set in mkLRange.C for JobNum: 22  <1-21|1-21>
 MakeJK  time:  CPU      16.32 s  wall      16.49 s
 HF Exchange:              -105.28187401196419
 One-Electron:             -3103.83438876702985
 Total Coulomb:            1171.43786214533134
 Nuclear repulsion:        469.87937886824596
    2   -1567.7050541732      7.04e-03  
Finding J and K together
 Job number = 22, Threshold = 1.00E-08
Integral type ranges set in mkLRange.C for JobNum: 22  <1-21|1-21>
 MakeJK  time:  CPU      16.16 s  wall      16.66 s
 HF Exchange:              -105.39464773821032
 One-Electron:             -3102.02407685894696
 Total Coulomb:            1169.63743283311715
 Nuclear repulsion:        469.87937886824596
    3   -1567.7990217654      5.68e-03  
Finding J and K together
 Job number = 22, Threshold = 1.00E-08
Integral type ranges set in mkLRange.C for JobNum: 22  <1-21|1-21>
 MakeJK  time:  CPU      16.12 s  wall      16.71 s
 HF Exchange:              -105.42373780713990
 One-Electron:             -3102.26605954644856
 Total Coulomb:            1169.90660907932374
 Nuclear repulsion:        469.87937886824596
    4   -1567.9019128958      4.88e-04  
Finding J and K together
 Job number = 22, Threshold = 1.00E-08
Integral type ranges set in mkLRange.C for JobNum: 22  <1-21|1-21>
 MakeJK  time:  CPU      16.20 s  wall      18.17 s
 HF Exchange:              -105.41743891270828
 One-Electron:             -3102.14468384242309
 Total Coulomb:            1169.77869693778985
 Nuclear repulsion:        469.87937886824596
    5   -1567.9038094060      2.00e-04  
Finding J and K together
 Job number = 22, Threshold = 1.00E-08
Integral type ranges set in mkLRange.C for JobNum: 22  <1-21|1-21>
 MakeJK  time:  CPU      15.58 s  wall      16.68 s
 HF Exchange:              -105.42157579176097
 One-Electron:             -3102.17573361975701
 Total Coulomb:            1169.81385341119471
 Nuclear repulsion:        469.87937886824596
    6   -1567.9040469491      6.64e-05  
Finding J and K together
 Job number = 22, Threshold = 1.00E-08
Integral type ranges set in mkLRange.C for JobNum: 22  <1-21|1-21>
 MakeJK  time:  CPU      16.15 s  wall      17.16 s
 HF Exchange:              -105.42169124592635
 One-Electron:             -3102.17435756889745
 Total Coulomb:            1169.81259036281358
 Nuclear repulsion:        469.87937886824596
    7   -1567.9040771321      1.59e-05  
    8   -1567.9040795838      3.47e-06  Convergence criterion met
 ---------------------------------------
 SCF time:   CPU 119.89s  wall 125.00s 
 Total energy in the final basis set =    -1567.9040795838
 HF Exchange:              -105.42169124592635
 One-Electron:             -3102.17435756889745
 Total Coulomb:            1169.81259036281358
 Nuclear repulsion:        469.87937886824596
Wall  1 = 126
Clock 1 = 120.05638885498047
 ==================================================
                  Done GEN_SCFMAN                  
 ==================================================

Symmetry turned off temporarily

 --------------------------------------------------------------

                    Orbital Energies (a.u.)
 --------------------------------------------------------------

 Alpha MOs
 -- Occupied --
*******-104.858-104.858 -20.617 -20.612 -11.493 -10.585 -10.585
-10.585  -8.053  -8.053  -8.053  -8.050  -8.050  -8.050  -8.050
 -8.050  -8.050  -1.464  -1.406  -1.205  -1.115  -1.110  -0.867
 -0.767  -0.747  -0.678  -0.677  -0.642  -0.581  -0.554  -0.533
 -0.501  -0.494  -0.478  -0.460  -0.458  -0.447
 -- Virtual --
  0.033   0.064   0.078   0.084   0.102   0.108   0.111   0.133
  0.138   0.144   0.154   0.158   0.183   0.189   0.191   0.200
  0.208   0.213   0.219   0.245   0.249   0.273   0.279   0.287
  0.295   0.303   0.321   0.361   0.377   0.400   0.415   0.422
  0.458   0.521   0.539   0.557   0.592   0.595   0.607   0.613
  0.625   0.634   0.635   0.659   0.680   0.696   0.747   0.771
  0.822   0.983   0.986   1.069   1.101   1.108   1.124   1.134
  1.140   1.146   1.151   1.163   1.172   1.193   1.203   1.218
  1.288   1.291   1.314   1.335   1.376   1.377   1.430   1.444
  1.455   1.509   1.514   1.578   1.633   1.667   1.731   1.748
  1.807   1.923   1.949   1.968   2.083   2.127   2.153   2.270
  2.399   2.585   2.608   2.617   2.629   2.654   2.662   2.672
  2.764   2.782   2.866   2.873   2.926   3.104   3.242   3.324
  3.347   3.450   3.465   3.503   3.620   3.669   3.730   4.066
  4.165   4.292   4.298   5.544   5.584   5.899   5.922   6.143
  6.193  10.393  10.426  10.450  24.552  26.698  26.724  26.733
 26.774  26.791  26.816  27.149  27.222  27.588  51.548  51.610
219.256 219.285 219.310
 --------------------------------------------------------------

          Ground-State Mulliken Net Atomic Charges

     Atom                 Charge (a.u.)
  ----------------------------------------
      1 O                    -0.129479
      2 H                     0.451888
      3 C                    -0.423136
      4 Cl                    0.308256
      5 Cl                   -0.120927
      6 Cl                   -0.120878
      7 O                    -0.497335
      8 H                     0.265819
      9 H                     0.265791
  ----------------------------------------
  Sum of atomic charges =    -0.000000

 -----------------------------------------------------------------
                    Cartesian Multipole Moments
 -----------------------------------------------------------------
    Charge (ESU x 10^10)
                -0.0000
    Dipole Moment (Debye)
         X       3.3125      Y       0.0005      Z      -1.6172
       Tot       3.6862
    Quadrupole Moments (Debye-Ang)
        XX     -46.6930     XY       0.0027     YY     -55.6378
        XZ      -4.3266     YZ       0.0012     ZZ     -60.9108
    Octopole Moments (Debye-Ang^2)
       XXX      35.4919    XXY       0.0147    XYY      13.2708
       YYY      -0.0001    XXZ     -12.0021    XYZ       0.0037
       YYZ      -1.8570    XZZ       0.2645    YZZ       0.0013
       ZZZ      -2.1510
    Hexadecapole Moments (Debye-Ang^3)
      XXXX    -637.3554   XXXY       0.0626   XXYY    -165.9680
      XYYY       0.0035   YYYY    -371.6605   XXXZ     -59.1259
      XXYZ       0.0140   XYYZ      -0.1902   YYYZ       0.0022
      XXZZ    -183.5734   XYZZ       0.0037   YYZZ    -102.0721
      XZZZ       0.5207   YZZZ      -0.0002   ZZZZ    -276.3872
 -----------------------------------------------------------------
 Mayer SCF Bond Order, atomic valence on the diagonal:

            1           2           3           4           5           6
    1   1.7251677   0.7804266   1.4642177  -0.1520049  -0.1805377  -0.1805560
    2   0.7804266   0.7986569  -0.0204656  -0.0099891   0.0248585   0.0248116
    3   1.4642177  -0.0204656   4.7490000   0.9800171   1.0675236   1.0676730
    4  -0.1520049  -0.0099891   0.9800171   0.9808327   0.0594367   0.0594715
    5  -0.1805377   0.0248585   1.0675236   0.0594367   1.1527697   0.2342260
    6  -0.1805560   0.0248116   1.0676730   0.0594715   0.2342260   1.1528899
    7  -0.0012408   0.0007409   0.1718310   0.0481462  -0.0693701  -0.0693840
    8  -0.0025630  -0.0008616   0.0090861  -0.0021252   0.0172795  -0.0006454
    9  -0.0025742  -0.0008645   0.0091170  -0.0021198  -0.0006469   0.0172930
            7           8           9
    1  -0.0012408  -0.0025630  -0.0025742
    2   0.0007409  -0.0008616  -0.0008645
    3   0.1718310   0.0090861   0.0091170
    4   0.0481462  -0.0021252  -0.0021198
    5  -0.0693701   0.0172795  -0.0006469
    6  -0.0693840  -0.0006454   0.0172930
    7   2.0179110   0.9685854   0.9686023
    8   0.9685854   0.9969252   0.0081693
    9   0.9686023   0.0081693   0.9969764


 JobOver = TRUE
Archival summary:
1\1\qciep03\SP\HF\BasisUnspecified\l3213\jcartus\ThuFeb111:59:202018ThuFeb111:59:202018\0\\#,HF,BasisUnspecified,\\0,1\Cl\C,1,1.80783\O,2,1.33689,1,112.014\H,3,0.987793,2,108.202,1,-59.8097,0\O,4,1.74664,3,176.526,2,-0.228375,0\H,5,0.961076,4,111.481,3,58.3017,0\H,5,0.961109,4,111.443,3,-57.8061,0\Cl,2,1.76355,1,108.843,3,119.982,0\Cl,2,1.80784,1,106.535,3,-122.806,0\\HF=-1567.90408\\@

 Total job time:  126.21s(wall), 120.69s(cpu) 
 Thu Feb  1 11:59:20 2018

        *************************************************************
        *                                                           *
        *  Thank you very much for using Q-Chem.  Have a nice day.  *
        *                                                           *
        *************************************************************


*** MISSION COMPLETED -- STARFLEET OUT ***

0 sent ACK to 0 
now end server 0 ... 
