Process 0 of 1 is on qciep03 - thread support 0
initial socket setup ...start
initial socket setup ...done 
now start server 0 ... 
qciep03.tugraz.at 127.0.1
Q-Chem Developer Version! Running on 127.0.1.*
                  Welcome to Q-Chem
     A Quantum Leap Into The Future Of Chemistry


 Q-Chem 5.0, Q-Chem, Inc., Pleasanton, CA (2017)

 Yihan Shao,  Zhengting Gan,  E. Epifanovsky,  A. T. B. Gilbert,  M. Wormit,  
 J. Kussmann,  A. W. Lange,  A. Behn,  Jia Deng,  Xintian Feng,  D. Ghosh,  
 M. Goldey,  P. R. Horn,  L. D. Jacobson,  I. Kaliman,  T. Kus,  A. Landau,  
 Jie Liu,  E. I. Proynov,  R. M. Richard,  R. P. Steele,  E. J. Sundstrom,  
 H. L. Woodcock III,  P. M. Zimmerman,  D. Zuev,  B. Albrecht,  E. Alguire,  
 S. A. Baeppler,  D. Barton,  Z. Benda,  Y. A. Bernard,  E. J. Berquist,  
 K. B. Bravaya,  H. Burton,  D. Casanova,  Chun-Min Chang,  Yunqing Chen,  
 A. Chien,  K. D. Closser,  M. P. Coons,  S. Dasgupta,  A. L. Dempwolff,  
 M. Diedenhofen,  Hainam Do,  R. G. Edgar,  Po-Tung Fang,  S. Fatehi,  
 Qingguo Feng,  J. Fosso-Tande,  Qinghui Ge,  A. Ghysels,  G. Gidofalvi,  
 J. Gomes,  J. Gonthier,  A. Gunina,  M. W. D. Hanson-Heine,  
 P. H. P. Harbach,  A. W. Hauser,  J. E. Herr,  E. G. Hohenstein,  
 Z. C. Holden,  Kerwin Hui,  T.-C. Jagau,  Hyunjun Ji,  B. Kaduk,  
 K. Khistyaev,  Jaehoon Kim,  P. Klunzinger,  K. Koh,  D. Kosenkov,  
 L. Koulias,  T. Kowalczyk,  C. M. Krauter,  A. Kunitsa,  Ka Un Lao,  
 A. Laurent,  K. V. Lawler,  Joonho Lee,  D. Lefrancois,  S. Lehtola,  
 D. S. Levine,  Yi-Pei Li,  You-Sheng Lin,  Fenglai Liu,  E. Livshits,  
 A. Luenser,  P. Manohar,  E. Mansoor,  S. F. Manzer,  Shan-Ping Mao,  
 Yuezhi Mao,  N. Mardirossian,  A. V. Marenich,  T. Markovich,  
 L. A. Martinez-Martinez,  S. A. Maurer,  N. J. Mayhall,  S. C. McKenzie,  
 J.-M. Mewes,  A. F. Morrison,  J. W. Mullinax,  K. Nanda,  
 T. S. Nguyen-Beck,  R. Olivares-Amaya,  J. A. Parkhill,  T. M. Perrine,  
 F. Plasser,  S. Prager,  A. Prociuk,  E. Ramos,  D. R. Rehn,  F. Rob,  
 M. Schneider,  N. Sergueev,  S. M. Sharada,  S. Sharma,  D. W. Small,  
 T. Stauch,  T. Stein,  Yu-Chuan Su,  A. J. W. Thom,  A. Tkatchenko,  
 T. Tsuchimochi,  L. Vogt,  O. Vydrov,  M. A. Watson,  J. Wenzel,  
 M. de Wergifosse,  T. A. Wesolowski,  A. White,  J. Witte,  A. Yamada,  
 Jun Yang,  K. Yao,  S. Yeganeh,  S. R. Yost,  Zhi-Qiang You,  A. Zech,  
 Igor Ying Zhang,  Xing Zhang,  Yan Zhao,  Ying Zhu,  B. R. Brooks,  
 G. K. L. Chan,  C. J. Cramer,  M. S. Gordon,  W. J. Hehre,  A. Klamt,  
 M. W. Schmidt,  C. D. Sherrill,  D. G. Truhlar,  A. Aspuru-Guzik,  R. Baer,  
 A. T. Bell,  N. A. Besley,  Jeng-Da Chai,  R. A. DiStasio Jr.,  A. Dreuw,  
 B. D. Dunietz,  T. R. Furlani,  Chao-Ping Hsu,  Yousung Jung,  Jing Kong,  
 D. S. Lambrecht,  WanZhen Liang,  C. Ochsenfeld,  V. A. Rassolov,  
 L. V. Slipchenko,  J. E. Subotnik,  T. Van Voorhis,  J. M. Herbert,  
 A. I. Krylov,  P. M. W. Gill,  M. Head-Gordon

 Contributors to earlier versions of Q-Chem not listed above: 
 R. D. Adamson,  B. Austin,  J. Baker,  G. J. O. Beran,  K. Brandhorst,  
 S. T. Brown,  E. F. C. Byrd,  A. K. Chakraborty,  C.-L. Cheng,  
 Siu Hung Chien,  D. M. Chipman,  D. L. Crittenden,  H. Dachsel,  
 R. J. Doerksen,  A. D. Dutoi,  L. Fusti-Molnar,  W. A. Goddard III,  
 A. Golubeva-Zadorozhnaya,  S. R. Gwaltney,  G. Hawkins,  A. Heyden,  
 S. Hirata,  G. Kedziora,  F. J. Keil,  C. Kelley,  Jihan Kim,  R. A. King,  
 R. Z. Khaliullin,  P. P. Korambath,  W. Kurlancheek,  A. M. Lee,  M. S. Lee,  
 S. V. Levchenko,  Ching Yeh Lin,  D. Liotard,  R. C. Lochan,  I. Lotan,  
 P. E. Maslen,  N. Nair,  D. P. O'Neill,  D. Neuhauser,  E. Neuscamman,  
 C. M. Oana,  R. Olson,  B. Peters,  R. Peverati,  P. A. Pieniazek,  
 Y. M. Rhee,  J. Ritchie,  M. A. Rohrdanz,  E. Rosta,  N. J. Russ,  
 H. F. Schaefer III,  N. E. Schultz,  N. Shenvi,  A. C. Simmonett,  A. Sodt,  
 D. Stuck,  K. S. Thanthiriwatte,  V. Vanovschi,  Tao Wang,  A. Warshel,  
 C. F. Williams,  Q. Wu,  X. Xu,  W. Zhang

 Please cite Q-Chem as follows:
 Y. Shao et al., Mol. Phys. 113, 184-215 (2015)
 DOI: 10.1080/00268976.2014.952696

 Q-Chem 5.0.2 for Intel X86 EM64T Linux

 Parts of Q-Chem use Armadillo 5.200.1 (Boston Tea Smuggler).
 http://arma.sourceforge.net/

 Q-Chem begins on Thu Feb  1 12:12:02 2018  


Host: 0

     Scratch files written to /home/jcartus/scratch/25_benBr-mSH_mono2.dir//
 Using version located at /usr/local/qchem/bin/qchem

 Parallel job on  1  processors

Total Memory Limit in MB = 2000
Mega-Array Size in MB = 192

Checking the input file for inconsistencies... 	...done.
Finally everything over in PARseQInput

--------------------------------------------------------------
User input:
--------------------------------------------------------------
$rem
SCF_PRINT                     1
BASIS                         6-311++g**
SCF_SAVE_MATRICES             1
SCF_CONVERGENCE               5
SCF_FINAL_PRINT               1
METHOD                        hf
JOBTYPE                       sp
$end

$molecule
0 1
S    -4.157443472    5.729584377    -0.878761129
H    -4.823791426    4.796089466    -1.563433338
C    -2.82833852    5.970593053    -2.091189515
H    -2.167577293    6.722356639    -1.668621815
H    -2.264954814    5.054835899    -2.240198499
H    -3.218524904    6.337447714    -3.035087058
$end


--------------------------------------------------------------
 ----------------------------------------------------------------
             Standard Nuclear Orientation (Angstroms)
    I     Atom           X                Y                Z
 ----------------------------------------------------------------
    1      S       0.6602075242    -0.0861781433    -0.0000994839
    2      H       0.8917262957     1.2293473186     0.0003430650
    3      C      -1.1518141111     0.0194879052    -0.0002600578
    4      H      -1.5134643404    -1.0049390710     0.0084480730
    5      H      -1.5135625427     0.5248563775     0.8896595015
    6      H      -1.5171351331     0.5126582365    -0.8952985505
 ----------------------------------------------------------------
 Molecular Point Group                 C1    NOp =  1
 Largest Abelian Subgroup              C1    NOp =  1
 Nuclear Repulsion Energy =    56.4531045835 hartrees
 There are       13 alpha and       13 beta electrons
 Requested basis set is 6-311++G(d,p)
 There are 39 shells and 80 basis functions

 Total QAlloc Memory Limit   2000 MB
 Mega-Array Size       188 MB
 MEM_STATIC part       192 MB

finished with qalloc call

                       Distance Matrix (Angstroms)
             S (  1)   H (  2)   C (  3)   H (  4)   H (  5)
   H (  2)  1.335743
   C (  3)  1.815100  2.374830
   H (  4)  2.359882  3.282841  1.086424
   H (  5)  2.426996  2.659437  1.085457  1.765448
   H (  6)  2.429158  2.668039  1.085251  1.766316  1.785003

 Job number = 2, Threshold = 1.00E-08
Integral type ranges set in mkLRange.C for JobNum: 2  <1-21|1-21>
Symmetry turned off temporarily
 Using the largest function pair in Schwarz integrals
Total number of integrals generated =           35050
Symmetry turned back on
 A cutoff of  1.0D-08 yielded    766 shell pairs
 There are      3299 function pairs (      3472 Cartesian)
 Job number = 11, Threshold = 1.00E-08
Integral type ranges set in mkLRange.C for JobNum: 11  <1-21|22-22>
Total number of integrals generated =           20796
 Smallest overlap matrix eigenvalue = 4.10E-04
 Multipole matrices computed through 2nd order

 Scale SEOQF with 1.000000e-01/1.000000e-01/1.000000e-01

 Standard Electronic Orientation quadrupole field applied
 Nucleus-field energy     =     0.0000000009 hartrees
 ENuRep (before)= 56.4531045835
 ENucField = 0.0000000009
 ENuRep (after) = 56.4531045844
 Guess from superposition of atomic densities
 Warning:  Energy on first SCF cycle will be non-variational
 SAD guess density has 26.000000 electrons

 ==================================================
    GEN_SCFMAN: A general SCF calculation manager  
                                                   
    Authors:                                       
        -- Eric Jon Sundstrom 2008-2014            
        -- Paul Horn 2010-2015                     
        -- Yuezhi Mao 2012-                        
        -- Dmitri Zuev 2014                        
        -- Alec White 2015-                        
        -- David Stuck 2015                        
        -- Shaama M.S. 2015                        
        -- Shane Yost 2015-                         
        -- Joonho Lee 2016-                        
        -- David Small 2016-                       
        -- Daniel Levine 2016-                     
        -- Susi Lehtola 2017-                      
        -- Hugh Burton 2017-                       
 ==================================================
 Hartree-Fock
Finding J and K together
 Job number = 22, Threshold = 1.00E-08
Integral type ranges set in mkLRange.C for JobNum: 22  <1-21|1-21>
 MakeJK  time:  CPU       0.77 s  wall       0.83 s
 HF Exchange:              -31.54486857219026
 One-Electron:             -713.47581692214237
 Total Coulomb:            250.55487555613081
 Nuclear repulsion:         56.45310458438365
 A restricted SCF calculation will be
 performed using DIIS
 SCF converges when DIIS error is below 1.0e-05
 ---------------------------------------
  Cycle       Energy         DIIS error
 ---------------------------------------
Finding J and K together
 Job number = 22, Threshold = 1.00E-08
Integral type ranges set in mkLRange.C for JobNum: 22  <1-21|1-21>
 MakeJK  time:  CPU       1.50 s  wall       1.67 s
 HF Exchange:              -31.58453782030466
 One-Electron:             -715.38149257774990
 Total Coulomb:            252.79550853013390
 Nuclear repulsion:         56.45310458438365
    1    -438.0127053538      5.89e-02  
Finding J and K together
 Job number = 22, Threshold = 1.00E-08
Integral type ranges set in mkLRange.C for JobNum: 22  <1-21|1-21>
 MakeJK  time:  CPU       1.50 s  wall       1.63 s
 HF Exchange:              -31.62634312467008
 One-Electron:             -715.24540484987097
 Total Coulomb:            252.67943849880339
 Nuclear repulsion:         56.45310458438365
    2    -437.7174172835      4.27e-03  
Finding J and K together
 Job number = 22, Threshold = 1.00E-08
Integral type ranges set in mkLRange.C for JobNum: 22  <1-21|1-21>
 MakeJK  time:  CPU       1.49 s  wall       1.57 s
 HF Exchange:              -31.63945652102360
 One-Electron:             -715.32337526837182
 Total Coulomb:            252.76867179380486
 Nuclear repulsion:         56.45310458438365
    3    -437.7392048914      1.32e-03  
Finding J and K together
 Job number = 22, Threshold = 1.00E-08
Integral type ranges set in mkLRange.C for JobNum: 22  <1-21|1-21>
 MakeJK  time:  CPU       1.50 s  wall       1.65 s
 HF Exchange:              -31.64423925044887
 One-Electron:             -715.31510792585232
 Total Coulomb:            252.76491458463107
 Nuclear repulsion:         56.45310458438365
    4    -437.7410554112      4.61e-04  
Finding J and K together
 Job number = 22, Threshold = 1.00E-08
Integral type ranges set in mkLRange.C for JobNum: 22  <1-21|1-21>
 MakeJK  time:  CPU       1.52 s  wall       1.70 s
 HF Exchange:              -31.64440464536172
 One-Electron:             -715.30427206293609
 Total Coulomb:            252.75422539039363
 Nuclear repulsion:         56.45310458438365
    5    -437.7413280073      1.08e-04  
Finding J and K together
 Job number = 22, Threshold = 1.00E-08
Integral type ranges set in mkLRange.C for JobNum: 22  <1-21|1-21>
 MakeJK  time:  CPU       1.51 s  wall       1.59 s
 HF Exchange:              -31.64484083440558
 One-Electron:             -715.30704284517083
 Total Coulomb:            252.75743081485757
 Nuclear repulsion:         56.45310458438365
    6    -437.7413467335      2.78e-05  
    7    -437.7413482803      7.46e-06  Convergence criterion met
 ---------------------------------------
 SCF time:   CPU 9.93s  wall 11.00s 
 Total energy in the final basis set =     -437.7413482803
 HF Exchange:              -31.64484083440558
 One-Electron:             -715.30704284517083
 Total Coulomb:            252.75743081485757
 Nuclear repulsion:         56.45310458438365
Wall  1 = 11
Clock 1 = 9.96109294891357
 ==================================================
                  Done GEN_SCFMAN                  
 ==================================================

Symmetry turned off temporarily

 --------------------------------------------------------------

                    Orbital Energies (a.u.)
 --------------------------------------------------------------

 Alpha MOs
 -- Occupied --
-91.953 -11.259  -8.955  -6.638  -6.637  -6.635  -1.041  -0.870
 -0.611  -0.595  -0.530  -0.460  -0.357
 -- Virtual --
  0.040   0.058   0.072   0.076   0.107   0.122   0.125   0.143
  0.165   0.165   0.190   0.198   0.223   0.252   0.288   0.290
  0.381   0.443   0.454   0.469   0.529   0.548   0.596   0.701
  0.837   0.845   0.870   0.911   0.965   0.976   1.031   1.033
  1.228   1.256   1.357   1.360   1.701   1.711   1.744   1.801
  1.847   1.914   1.929   1.970   2.102   2.103   2.184   2.298
  2.447   2.483   2.517   2.778   2.790   2.806   2.889   2.894
  2.967   3.204   3.581   4.133   4.147   8.525  18.410  18.470
 18.509  25.074 192.370
 --------------------------------------------------------------

          Ground-State Mulliken Net Atomic Charges

     Atom                 Charge (a.u.)
  ----------------------------------------
      1 S                     0.042915
      2 H                     0.006001
      3 C                    -0.478641
      4 H                     0.152468
      5 H                     0.138650
      6 H                     0.138607
  ----------------------------------------
  Sum of atomic charges =     0.000000

 -----------------------------------------------------------------
                    Cartesian Multipole Moments
 -----------------------------------------------------------------
    Charge (ESU x 10^10)
                 0.0000
    Dipole Moment (Debye)
         X      -1.4964      Y       0.9861      Z       0.0017
       Tot       1.7921
    Quadrupole Moments (Debye-Ang)
        XX     -20.5844     XY       1.4870     YY     -19.5646
        XZ       0.0018     YZ      -0.0004     ZZ     -22.9375
    Octopole Moments (Debye-Ang^2)
       XXX       0.0658    XXY       1.5741    XYY      -0.2355
       YYY       0.9224    XXZ      -0.0002    XYZ       0.0040
       YYZ       0.0172    XZZ      -2.9540    YZZ       1.2646
       ZZZ      -0.0119
    Hexadecapole Moments (Debye-Ang^3)
      XXXX    -135.1334   XXXY       2.8309   XXYY     -27.6432
      XYYY       3.5840   YYYY     -35.7992   XXXZ       0.0186
      XXYZ      -0.0096   XYYZ      -0.0236   YYYZ      -0.0017
      XXZZ     -29.5918   XYZZ      -0.4274   YYZZ     -12.7496
      XZZZ       0.0251   YZZZ       0.0023   ZZZZ     -38.0042
 -----------------------------------------------------------------
 Mayer SCF Bond Order, atomic valence on the diagonal:

            1           2           3           4           5           6
    1   1.6883194   0.9618099   0.7540354  -0.0165591  -0.0056557  -0.0053111
    2   0.9618099   0.9778879   0.0010214   0.0071810   0.0039726   0.0039029
    3   0.7540354   0.0010214   3.6745821   0.9689809   0.9753539   0.9751906
    4  -0.0165591   0.0071810   0.9689809   0.9171627  -0.0212579  -0.0211822
    5  -0.0056557   0.0039726   0.9753539  -0.0212579   0.9315298  -0.0208831
    6  -0.0053111   0.0039029   0.9751906  -0.0211822  -0.0208831   0.9317170


 JobOver = TRUE
Archival summary:
1\1\qciep03\SP\HF\BasisUnspecified\114\jcartus\ThuFeb112:12:132018ThuFeb112:12:132018\0\\#,HF,BasisUnspecified,\\0,1\S\H,1,1.33574\C,1,1.8151,2,96.6439\H,3,1.08525,1,111.259,2,62.2594,0\H,3,1.08546,1,111.084,2,-61.4692,0\H,3,1.08642,1,106.106,2,-179.502,0\\HF=-437.741348\\@

 Total job time:  11.07s(wall), 10.16s(cpu) 
 Thu Feb  1 12:12:13 2018

        *************************************************************
        *                                                           *
        *  Thank you very much for using Q-Chem.  Have a nice day.  *
        *                                                           *
        *************************************************************


*** MISSION COMPLETED -- STARFLEET OUT ***

0 sent ACK to 0 
now end server 0 ... 
