Process 0 of 1 is on qciep03 - thread support 0
initial socket setup ...start
initial socket setup ...done 
now start server 0 ... 
qciep03.tugraz.at 127.0.1
Q-Chem Developer Version! Running on 127.0.1.*
                  Welcome to Q-Chem
     A Quantum Leap Into The Future Of Chemistry


 Q-Chem 5.0, Q-Chem, Inc., Pleasanton, CA (2017)

 Yihan Shao,  Zhengting Gan,  E. Epifanovsky,  A. T. B. Gilbert,  M. Wormit,  
 J. Kussmann,  A. W. Lange,  A. Behn,  Jia Deng,  Xintian Feng,  D. Ghosh,  
 M. Goldey,  P. R. Horn,  L. D. Jacobson,  I. Kaliman,  T. Kus,  A. Landau,  
 Jie Liu,  E. I. Proynov,  R. M. Richard,  R. P. Steele,  E. J. Sundstrom,  
 H. L. Woodcock III,  P. M. Zimmerman,  D. Zuev,  B. Albrecht,  E. Alguire,  
 S. A. Baeppler,  D. Barton,  Z. Benda,  Y. A. Bernard,  E. J. Berquist,  
 K. B. Bravaya,  H. Burton,  D. Casanova,  Chun-Min Chang,  Yunqing Chen,  
 A. Chien,  K. D. Closser,  M. P. Coons,  S. Dasgupta,  A. L. Dempwolff,  
 M. Diedenhofen,  Hainam Do,  R. G. Edgar,  Po-Tung Fang,  S. Fatehi,  
 Qingguo Feng,  J. Fosso-Tande,  Qinghui Ge,  A. Ghysels,  G. Gidofalvi,  
 J. Gomes,  J. Gonthier,  A. Gunina,  M. W. D. Hanson-Heine,  
 P. H. P. Harbach,  A. W. Hauser,  J. E. Herr,  E. G. Hohenstein,  
 Z. C. Holden,  Kerwin Hui,  T.-C. Jagau,  Hyunjun Ji,  B. Kaduk,  
 K. Khistyaev,  Jaehoon Kim,  P. Klunzinger,  K. Koh,  D. Kosenkov,  
 L. Koulias,  T. Kowalczyk,  C. M. Krauter,  A. Kunitsa,  Ka Un Lao,  
 A. Laurent,  K. V. Lawler,  Joonho Lee,  D. Lefrancois,  S. Lehtola,  
 D. S. Levine,  Yi-Pei Li,  You-Sheng Lin,  Fenglai Liu,  E. Livshits,  
 A. Luenser,  P. Manohar,  E. Mansoor,  S. F. Manzer,  Shan-Ping Mao,  
 Yuezhi Mao,  N. Mardirossian,  A. V. Marenich,  T. Markovich,  
 L. A. Martinez-Martinez,  S. A. Maurer,  N. J. Mayhall,  S. C. McKenzie,  
 J.-M. Mewes,  A. F. Morrison,  J. W. Mullinax,  K. Nanda,  
 T. S. Nguyen-Beck,  R. Olivares-Amaya,  J. A. Parkhill,  T. M. Perrine,  
 F. Plasser,  S. Prager,  A. Prociuk,  E. Ramos,  D. R. Rehn,  F. Rob,  
 M. Schneider,  N. Sergueev,  S. M. Sharada,  S. Sharma,  D. W. Small,  
 T. Stauch,  T. Stein,  Yu-Chuan Su,  A. J. W. Thom,  A. Tkatchenko,  
 T. Tsuchimochi,  L. Vogt,  O. Vydrov,  M. A. Watson,  J. Wenzel,  
 M. de Wergifosse,  T. A. Wesolowski,  A. White,  J. Witte,  A. Yamada,  
 Jun Yang,  K. Yao,  S. Yeganeh,  S. R. Yost,  Zhi-Qiang You,  A. Zech,  
 Igor Ying Zhang,  Xing Zhang,  Yan Zhao,  Ying Zhu,  B. R. Brooks,  
 G. K. L. Chan,  C. J. Cramer,  M. S. Gordon,  W. J. Hehre,  A. Klamt,  
 M. W. Schmidt,  C. D. Sherrill,  D. G. Truhlar,  A. Aspuru-Guzik,  R. Baer,  
 A. T. Bell,  N. A. Besley,  Jeng-Da Chai,  R. A. DiStasio Jr.,  A. Dreuw,  
 B. D. Dunietz,  T. R. Furlani,  Chao-Ping Hsu,  Yousung Jung,  Jing Kong,  
 D. S. Lambrecht,  WanZhen Liang,  C. Ochsenfeld,  V. A. Rassolov,  
 L. V. Slipchenko,  J. E. Subotnik,  T. Van Voorhis,  J. M. Herbert,  
 A. I. Krylov,  P. M. W. Gill,  M. Head-Gordon

 Contributors to earlier versions of Q-Chem not listed above: 
 R. D. Adamson,  B. Austin,  J. Baker,  G. J. O. Beran,  K. Brandhorst,  
 S. T. Brown,  E. F. C. Byrd,  A. K. Chakraborty,  C.-L. Cheng,  
 Siu Hung Chien,  D. M. Chipman,  D. L. Crittenden,  H. Dachsel,  
 R. J. Doerksen,  A. D. Dutoi,  L. Fusti-Molnar,  W. A. Goddard III,  
 A. Golubeva-Zadorozhnaya,  S. R. Gwaltney,  G. Hawkins,  A. Heyden,  
 S. Hirata,  G. Kedziora,  F. J. Keil,  C. Kelley,  Jihan Kim,  R. A. King,  
 R. Z. Khaliullin,  P. P. Korambath,  W. Kurlancheek,  A. M. Lee,  M. S. Lee,  
 S. V. Levchenko,  Ching Yeh Lin,  D. Liotard,  R. C. Lochan,  I. Lotan,  
 P. E. Maslen,  N. Nair,  D. P. O'Neill,  D. Neuhauser,  E. Neuscamman,  
 C. M. Oana,  R. Olson,  B. Peters,  R. Peverati,  P. A. Pieniazek,  
 Y. M. Rhee,  J. Ritchie,  M. A. Rohrdanz,  E. Rosta,  N. J. Russ,  
 H. F. Schaefer III,  N. E. Schultz,  N. Shenvi,  A. C. Simmonett,  A. Sodt,  
 D. Stuck,  K. S. Thanthiriwatte,  V. Vanovschi,  Tao Wang,  A. Warshel,  
 C. F. Williams,  Q. Wu,  X. Xu,  W. Zhang

 Please cite Q-Chem as follows:
 Y. Shao et al., Mol. Phys. 113, 184-215 (2015)
 DOI: 10.1080/00268976.2014.952696

 Q-Chem 5.0.2 for Intel X86 EM64T Linux

 Parts of Q-Chem use Armadillo 5.200.1 (Boston Tea Smuggler).
 http://arma.sourceforge.net/

 Q-Chem begins on Thu Feb  1 11:53:38 2018  


Host: 0

     Scratch files written to /home/jcartus/scratch/39_methanol-fluoromethane.dir//
 Using version located at /usr/local/qchem/bin/qchem

 Parallel job on  1  processors

Total Memory Limit in MB = 2000
Mega-Array Size in MB = 192

Checking the input file for inconsistencies... 	...done.
Finally everything over in PARseQInput

--------------------------------------------------------------
User input:
--------------------------------------------------------------
$rem
SCF_PRINT                     1
BASIS                         6-311++g**
SCF_SAVE_MATRICES             1
SCF_CONVERGENCE               5
SCF_FINAL_PRINT               1
METHOD                        hf
JOBTYPE                       sp
$end

$molecule
0 1
H    0.855171335    -8.119e-06    -0.588786261
O    0.27154607    1.6357e-05    0.175592508
C    1.084050448    1.807e-06    1.33525199
H    0.417831608    -2.486e-06    2.192984764
H    1.718489566    -0.886312946    1.398035525
H    1.718498554    0.886309236    1.398050411
F    1.125857154    4.199e-06    -2.561576197
C    -0.184637333    -1.453e-06    -3.025415783
H    -0.166928581    -1.809e-06    -4.110978064
H    -0.686098066    -0.888580071    -2.654737004
H    -0.686105119    0.888573338    -2.654737429
$end


--------------------------------------------------------------
 ----------------------------------------------------------------
             Standard Nuclear Orientation (Angstroms)
    I     Atom           X                Y                Z
 ----------------------------------------------------------------
    1      H       0.4699553051    -0.2076033805     0.0000122237
    2      O       1.1387256650     0.4835113410    -0.0000096227
    3      C       2.4066087552    -0.1469218021     0.0000047285
    4      H       3.1553685903     0.6397876512     0.0000120002
    5      H       2.5633252478    -0.7649002066     0.8863180143
    6      H       2.5633433845    -0.7649021384    -0.8863041677
    7      F      -1.4403865758    -0.7695329508    -0.0000038333
    8      C      -2.0945173524     0.4571112067     0.0000043292
    9      H      -3.1652930998     0.2776721797     0.0000029515
   10      H      -1.8027872963     1.0082518190     0.8885847612
   11      H      -1.8027866867     1.0082634770    -0.8885686478
 ----------------------------------------------------------------
 Molecular Point Group                 C1    NOp =  1
 Largest Abelian Subgroup              C1    NOp =  1
 Nuclear Repulsion Energy =   126.3034766610 hartrees
 There are       18 alpha and       18 beta electrons
 Requested basis set is 6-311++G(d,p)
 There are 59 shells and 137 basis functions

 Total QAlloc Memory Limit   2000 MB
 Mega-Array Size       188 MB
 MEM_STATIC part       192 MB

finished with qalloc call

                       Distance Matrix (Angstroms)
             H (  1)   O (  2)   C (  3)   H (  4)   H (  5)   H (  6)
   O (  2)  0.961714
   C (  3)  1.937604  1.415971
   H (  4)  2.815940  2.022689  1.086072
   H (  5)  2.340580  2.091313  1.091791  1.763293
   H (  6)  2.340601  2.091313  1.091792  1.763293  1.772622
   F (  7)  1.991274  2.867393  3.897052  4.806990  4.100646  4.100659
   C (  8)  2.649220  3.233351  4.541475  5.253063  4.896362  4.896379
   H (  9)  3.667496  4.308938  5.588056  6.331026  5.889786  5.889803
   H ( 10)  2.726394  3.117283  4.454550  5.050608  4.712432  5.035613
   H ( 11)  2.726401  3.117274  4.454551  5.050609  5.035600  4.712453
             F (  7)   C (  8)   H (  9)   H ( 10)
   C (  8)  1.390159
   H (  9)  2.017905  1.085707
   H ( 10)  2.020258  1.085559  1.783184
   H ( 11)  2.020258  1.085559  1.783184  1.777153

 Job number = 2, Threshold = 1.00E-08
Integral type ranges set in mkLRange.C for JobNum: 2  <1-21|1-21>
Symmetry turned off temporarily
 Using the largest function pair in Schwarz integrals
Total number of integrals generated =          104427
Symmetry turned back on
 A cutoff of  1.0D-08 yielded   1519 shell pairs
 There are      8071 function pairs (      8517 Cartesian)
 Job number = 11, Threshold = 1.00E-08
Integral type ranges set in mkLRange.C for JobNum: 11  <1-21|22-22>
Total number of integrals generated =           93687
 Smallest overlap matrix eigenvalue = 8.06E-04
 Multipole matrices computed through 2nd order

 Scale SEOQF with 1.000000e-01/1.000000e-01/1.000000e-01

 Standard Electronic Orientation quadrupole field applied
 Nucleus-field energy     =     0.0000000052 hartrees
 ENuRep (before)= 126.3034766610
 ENucField = 0.0000000052
 ENuRep (after) = 126.3034766662
 Guess from superposition of atomic densities
 Warning:  Energy on first SCF cycle will be non-variational
 SAD guess density has 36.000000 electrons

 ==================================================
    GEN_SCFMAN: A general SCF calculation manager  
                                                   
    Authors:                                       
        -- Eric Jon Sundstrom 2008-2014            
        -- Paul Horn 2010-2015                     
        -- Yuezhi Mao 2012-                        
        -- Dmitri Zuev 2014                        
        -- Alec White 2015-                        
        -- David Stuck 2015                        
        -- Shaama M.S. 2015                        
        -- Shane Yost 2015-                         
        -- Joonho Lee 2016-                        
        -- David Small 2016-                       
        -- Daniel Levine 2016-                     
        -- Susi Lehtola 2017-                      
        -- Hugh Burton 2017-                       
 ==================================================
 Hartree-Fock
Finding J and K together
 Job number = 22, Threshold = 1.00E-08
Integral type ranges set in mkLRange.C for JobNum: 22  <1-21|1-21>
 MakeJK  time:  CPU       1.71 s  wall       1.74 s
 HF Exchange:              -30.81087383948506
 One-Electron:             -597.01911433335999
 Total Coulomb:            246.97215116270604
 Nuclear repulsion:        126.30347666618685
 A restricted SCF calculation will be
 performed using DIIS
 SCF converges when DIIS error is below 1.0e-05
 ---------------------------------------
  Cycle       Energy         DIIS error
 ---------------------------------------
Finding J and K together
 Job number = 22, Threshold = 1.00E-08
Integral type ranges set in mkLRange.C for JobNum: 22  <1-21|1-21>
 MakeJK  time:  CPU       5.39 s  wall       5.50 s
 HF Exchange:              -31.22562876922880
 One-Electron:             -600.97947277927642
 Total Coulomb:            251.79890284698629
 Nuclear repulsion:        126.30347666618685
    1    -254.5543603440      4.91e-02  
Finding J and K together
 Job number = 22, Threshold = 1.00E-08
Integral type ranges set in mkLRange.C for JobNum: 22  <1-21|1-21>
 MakeJK  time:  CPU       5.42 s  wall       5.52 s
 HF Exchange:              -31.07230371860247
 One-Electron:             -599.73477538330224
 Total Coulomb:            250.34964570005093
 Nuclear repulsion:        126.30347666618685
    2    -254.1027220353      5.45e-03  
Finding J and K together
 Job number = 22, Threshold = 1.00E-08
Integral type ranges set in mkLRange.C for JobNum: 22  <1-21|1-21>
 MakeJK  time:  CPU       5.42 s  wall       5.53 s
 HF Exchange:              -31.20732316695831
 One-Electron:             -600.59353776462513
 Total Coulomb:            251.33119521013703
 Nuclear repulsion:        126.30347666618685
    3    -254.1539567357      2.89e-03  
Finding J and K together
 Job number = 22, Threshold = 1.00E-08
Integral type ranges set in mkLRange.C for JobNum: 22  <1-21|1-21>
 MakeJK  time:  CPU       5.40 s  wall       5.70 s
 HF Exchange:              -31.19191397010927
 One-Electron:             -600.40134962995057
 Total Coulomb:            251.12290552876257
 Nuclear repulsion:        126.30347666618685
    4    -254.1661890553      5.42e-04  
Finding J and K together
 Job number = 22, Threshold = 1.00E-08
Integral type ranges set in mkLRange.C for JobNum: 22  <1-21|1-21>
 MakeJK  time:  CPU       5.39 s  wall       5.47 s
 HF Exchange:              -31.19819229745545
 One-Electron:             -600.44733941341462
 Total Coulomb:            251.17513894925551
 Nuclear repulsion:        126.30347666618685
    5    -254.1668814051      1.06e-04  
Finding J and K together
 Job number = 22, Threshold = 1.00E-08
Integral type ranges set in mkLRange.C for JobNum: 22  <1-21|1-21>
 MakeJK  time:  CPU       5.35 s  wall       5.42 s
 HF Exchange:              -31.19751974970694
 One-Electron:             -600.43789923964812
 Total Coulomb:            251.16502397763097
 Nuclear repulsion:        126.30347666618685
    6    -254.1669160954      2.41e-05  
    7    -254.1669183455      6.65e-06  Convergence criterion met
 ---------------------------------------
 SCF time:   CPU 34.66s  wall 35.00s 
 Total energy in the final basis set =     -254.1669183455
 HF Exchange:              -31.19751974970694
 One-Electron:             -600.43789923964812
 Total Coulomb:            251.16502397763097
 Nuclear repulsion:        126.30347666618685
Wall  1 = 35
Clock 1 = 34.75259017944336
 ==================================================
                  Done GEN_SCFMAN                  
 ==================================================

Symmetry turned off temporarily

 --------------------------------------------------------------

                    Orbital Energies (a.u.)
 --------------------------------------------------------------

 Alpha MOs
 -- Occupied --
-26.293 -20.545 -11.312 -11.264  -1.602  -1.349  -0.965  -0.919
 -0.719  -0.707  -0.688  -0.673  -0.612  -0.585  -0.544  -0.541
 -0.494  -0.441
 -- Virtual --
  0.042   0.050   0.071   0.074   0.079   0.089   0.100   0.136
  0.146   0.151   0.171   0.183   0.187   0.195   0.204   0.281
  0.281   0.289   0.308   0.312   0.316   0.333   0.348   0.359
  0.390   0.399   0.417   0.421   0.455   0.490   0.500   0.550
  0.556   0.593   0.603   0.665   0.747   0.785   0.814   0.832
  0.844   0.857   0.865   0.880   0.917   1.059   1.151   1.237
  1.257   1.271   1.300   1.351   1.394   1.465   1.583   1.639
  1.639   1.647   1.691   1.724   1.772   1.772   1.826   1.827
  1.840   1.850   1.950   1.966   1.972   1.982   1.998   2.082
  2.142   2.323   2.338   2.422   2.428   2.431   2.468   2.592
  2.758   2.776   2.779   2.799   2.802   2.848   2.862   2.866
  2.867   2.889   3.052   3.223   3.232   3.391   3.482   3.486
  3.611   3.718   4.004   4.025   4.152   4.198   4.266   4.287
  4.347   4.512   4.556   4.568   5.296   5.593   5.954   6.253
  6.961   7.043   7.263  25.043  25.095  51.619  68.769
 --------------------------------------------------------------

          Ground-State Mulliken Net Atomic Charges

     Atom                 Charge (a.u.)
  ----------------------------------------
      1 H                     0.335533
      2 O                    -0.423116
      3 C                    -0.247379
      4 H                     0.124375
      5 H                     0.111099
      6 H                     0.111102
      7 F                    -0.244593
      8 C                    -0.208776
      9 H                     0.135160
     10 H                     0.153297
     11 H                     0.153298
  ----------------------------------------
  Sum of atomic charges =     0.000000

 -----------------------------------------------------------------
                    Cartesian Multipole Moments
 -----------------------------------------------------------------
    Charge (ESU x 10^10)
                 0.0000
    Dipole Moment (Debye)
         X      -0.9685      Y       0.0734      Z       0.0001
       Tot       0.9713
    Quadrupole Moments (Debye-Ang)
        XX     -18.2479     XY      -4.8801     YY     -27.1143
        XZ       0.0000     YZ      -0.0000     ZZ     -25.4533
    Octopole Moments (Debye-Ang^2)
       XXX     -10.8442    XXY       3.6118    XYY      -2.3832
       YYY      -3.0818    XXZ       0.0000    XYZ       0.0000
       YYZ      -0.0000    XZZ      -3.3378    YZZ      -1.3372
       ZZZ       0.0000
    Hexadecapole Moments (Debye-Ang^3)
      XXXX    -543.1151   XXXY       3.8394   XXYY    -113.5724
      XYYY       5.6371   YYYY     -73.1564   XXXZ       0.0000
      XXYZ       0.0000   XYYZ       0.0000   YYYZ      -0.0000
      XXZZ    -108.4031   XYZZ      -0.0359   YYZZ     -17.1503
      XZZZ       0.0000   YZZZ       0.0000   ZZZZ     -35.8883
 -----------------------------------------------------------------
 Mayer SCF Bond Order, atomic valence on the diagonal:

            1           2           3           4           5           6
    1   0.8640516   0.8571028  -0.0204378   0.0088022  -0.0117743  -0.0117749
    2   0.8571028   1.6625671   0.8894505  -0.0512007  -0.0227796  -0.0227801
    3  -0.0204378   0.8894505   3.8518416   1.0083794   0.9871626   0.9871618
    4   0.0088022  -0.0512007   1.0083794   0.9301525  -0.0176552  -0.0176548
    5  -0.0117743  -0.0227796   0.9871626  -0.0176552   0.9123533  -0.0221487
    6  -0.0117749  -0.0227801   0.9871618  -0.0176548  -0.0221487   0.9123520
    7   0.0641233  -0.0119947  -0.0064575  -0.0009971  -0.0009749  -0.0009747
    8  -0.0117023   0.0356387   0.0049202   0.0003791   0.0003993   0.0003991
    9   0.0001191   0.0039497   0.0006021   0.0000228   0.0001034   0.0001034
   10  -0.0052030  -0.0074100   0.0005300   0.0000384   0.0002395  -0.0002188
   11  -0.0052035  -0.0074096   0.0005301   0.0000384  -0.0002189   0.0002396
            7           8           9          10          11
    1   0.0641233  -0.0117023   0.0001191  -0.0052030  -0.0052035
    2  -0.0119947   0.0356387   0.0039497  -0.0074100  -0.0074096
    3  -0.0064575   0.0049202   0.0006021   0.0005300   0.0005301
    4  -0.0009971   0.0003791   0.0000228   0.0000384   0.0000384
    5  -0.0009749   0.0003993   0.0001034   0.0002395  -0.0002189
    6  -0.0009747   0.0003991   0.0001034  -0.0002188   0.0002396
    7   0.7351204   0.7980383  -0.0312147  -0.0372139  -0.0372138
    8   0.7980383   3.8032518   0.9907466   0.9922166   0.9922163
    9  -0.0312147   0.9907466   0.9415119  -0.0114603  -0.0114603
   10  -0.0372139   0.9922166  -0.0114603   0.9119284  -0.0195901
   11  -0.0372138   0.9922163  -0.0114603  -0.0195901   0.9119282


 JobOver = TRUE
Archival summary:
1\1\qciep03\SP\HF\BasisUnspecified\1127\jcartus\ThuFeb111:54:142018ThuFeb111:54:142018\0\\#,HF,BasisUnspecified,\\0,1\F\C,1,1.39016\H,2,1.08556,1,108.756\H,2,1.08556,1,108.756,3,-119.639,0\H,2,1.08571,1,108.556,3,120.18,0\H,1,1.99127,2,101.678,3,59.8201,0\O,6,0.961714,1,150.45,2,-0.00389302,0\C,7,1.41597,6,107.621,1,-179.998,0\H,8,1.08607,7,107.146,6,-179.998,0\H,8,1.09179,7,112.368,6,-61.3814,0\H,8,1.09179,7,112.368,6,61.385,0\\HF=-254.166918\\@

 Total job time:  36.03s(wall), 35.15s(cpu) 
 Thu Feb  1 11:54:14 2018

        *************************************************************
        *                                                           *
        *  Thank you very much for using Q-Chem.  Have a nice day.  *
        *                                                           *
        *************************************************************


*** MISSION COMPLETED -- STARFLEET OUT ***

0 sent ACK to 0 
now end server 0 ... 
