Process 0 of 1 is on qciep03 - thread support 0
initial socket setup ...start
initial socket setup ...done 
now start server 0 ... 
qciep03.tugraz.at 127.0.1
Q-Chem Developer Version! Running on 127.0.1.*
                  Welcome to Q-Chem
     A Quantum Leap Into The Future Of Chemistry


 Q-Chem 5.0, Q-Chem, Inc., Pleasanton, CA (2017)

 Yihan Shao,  Zhengting Gan,  E. Epifanovsky,  A. T. B. Gilbert,  M. Wormit,  
 J. Kussmann,  A. W. Lange,  A. Behn,  Jia Deng,  Xintian Feng,  D. Ghosh,  
 M. Goldey,  P. R. Horn,  L. D. Jacobson,  I. Kaliman,  T. Kus,  A. Landau,  
 Jie Liu,  E. I. Proynov,  R. M. Richard,  R. P. Steele,  E. J. Sundstrom,  
 H. L. Woodcock III,  P. M. Zimmerman,  D. Zuev,  B. Albrecht,  E. Alguire,  
 S. A. Baeppler,  D. Barton,  Z. Benda,  Y. A. Bernard,  E. J. Berquist,  
 K. B. Bravaya,  H. Burton,  D. Casanova,  Chun-Min Chang,  Yunqing Chen,  
 A. Chien,  K. D. Closser,  M. P. Coons,  S. Dasgupta,  A. L. Dempwolff,  
 M. Diedenhofen,  Hainam Do,  R. G. Edgar,  Po-Tung Fang,  S. Fatehi,  
 Qingguo Feng,  J. Fosso-Tande,  Qinghui Ge,  A. Ghysels,  G. Gidofalvi,  
 J. Gomes,  J. Gonthier,  A. Gunina,  M. W. D. Hanson-Heine,  
 P. H. P. Harbach,  A. W. Hauser,  J. E. Herr,  E. G. Hohenstein,  
 Z. C. Holden,  Kerwin Hui,  T.-C. Jagau,  Hyunjun Ji,  B. Kaduk,  
 K. Khistyaev,  Jaehoon Kim,  P. Klunzinger,  K. Koh,  D. Kosenkov,  
 L. Koulias,  T. Kowalczyk,  C. M. Krauter,  A. Kunitsa,  Ka Un Lao,  
 A. Laurent,  K. V. Lawler,  Joonho Lee,  D. Lefrancois,  S. Lehtola,  
 D. S. Levine,  Yi-Pei Li,  You-Sheng Lin,  Fenglai Liu,  E. Livshits,  
 A. Luenser,  P. Manohar,  E. Mansoor,  S. F. Manzer,  Shan-Ping Mao,  
 Yuezhi Mao,  N. Mardirossian,  A. V. Marenich,  T. Markovich,  
 L. A. Martinez-Martinez,  S. A. Maurer,  N. J. Mayhall,  S. C. McKenzie,  
 J.-M. Mewes,  A. F. Morrison,  J. W. Mullinax,  K. Nanda,  
 T. S. Nguyen-Beck,  R. Olivares-Amaya,  J. A. Parkhill,  T. M. Perrine,  
 F. Plasser,  S. Prager,  A. Prociuk,  E. Ramos,  D. R. Rehn,  F. Rob,  
 M. Schneider,  N. Sergueev,  S. M. Sharada,  S. Sharma,  D. W. Small,  
 T. Stauch,  T. Stein,  Yu-Chuan Su,  A. J. W. Thom,  A. Tkatchenko,  
 T. Tsuchimochi,  L. Vogt,  O. Vydrov,  M. A. Watson,  J. Wenzel,  
 M. de Wergifosse,  T. A. Wesolowski,  A. White,  J. Witte,  A. Yamada,  
 Jun Yang,  K. Yao,  S. Yeganeh,  S. R. Yost,  Zhi-Qiang You,  A. Zech,  
 Igor Ying Zhang,  Xing Zhang,  Yan Zhao,  Ying Zhu,  B. R. Brooks,  
 G. K. L. Chan,  C. J. Cramer,  M. S. Gordon,  W. J. Hehre,  A. Klamt,  
 M. W. Schmidt,  C. D. Sherrill,  D. G. Truhlar,  A. Aspuru-Guzik,  R. Baer,  
 A. T. Bell,  N. A. Besley,  Jeng-Da Chai,  R. A. DiStasio Jr.,  A. Dreuw,  
 B. D. Dunietz,  T. R. Furlani,  Chao-Ping Hsu,  Yousung Jung,  Jing Kong,  
 D. S. Lambrecht,  WanZhen Liang,  C. Ochsenfeld,  V. A. Rassolov,  
 L. V. Slipchenko,  J. E. Subotnik,  T. Van Voorhis,  J. M. Herbert,  
 A. I. Krylov,  P. M. W. Gill,  M. Head-Gordon

 Contributors to earlier versions of Q-Chem not listed above: 
 R. D. Adamson,  B. Austin,  J. Baker,  G. J. O. Beran,  K. Brandhorst,  
 S. T. Brown,  E. F. C. Byrd,  A. K. Chakraborty,  C.-L. Cheng,  
 Siu Hung Chien,  D. M. Chipman,  D. L. Crittenden,  H. Dachsel,  
 R. J. Doerksen,  A. D. Dutoi,  L. Fusti-Molnar,  W. A. Goddard III,  
 A. Golubeva-Zadorozhnaya,  S. R. Gwaltney,  G. Hawkins,  A. Heyden,  
 S. Hirata,  G. Kedziora,  F. J. Keil,  C. Kelley,  Jihan Kim,  R. A. King,  
 R. Z. Khaliullin,  P. P. Korambath,  W. Kurlancheek,  A. M. Lee,  M. S. Lee,  
 S. V. Levchenko,  Ching Yeh Lin,  D. Liotard,  R. C. Lochan,  I. Lotan,  
 P. E. Maslen,  N. Nair,  D. P. O'Neill,  D. Neuhauser,  E. Neuscamman,  
 C. M. Oana,  R. Olson,  B. Peters,  R. Peverati,  P. A. Pieniazek,  
 Y. M. Rhee,  J. Ritchie,  M. A. Rohrdanz,  E. Rosta,  N. J. Russ,  
 H. F. Schaefer III,  N. E. Schultz,  N. Shenvi,  A. C. Simmonett,  A. Sodt,  
 D. Stuck,  K. S. Thanthiriwatte,  V. Vanovschi,  Tao Wang,  A. Warshel,  
 C. F. Williams,  Q. Wu,  X. Xu,  W. Zhang

 Please cite Q-Chem as follows:
 Y. Shao et al., Mol. Phys. 113, 184-215 (2015)
 DOI: 10.1080/00268976.2014.952696

 Q-Chem 5.0.2 for Intel X86 EM64T Linux

 Parts of Q-Chem use Armadillo 5.200.1 (Boston Tea Smuggler).
 http://arma.sourceforge.net/

 Q-Chem begins on Thu Feb  1 12:19:27 2018  


Host: 0

     Scratch files written to /home/jcartus/scratch/23_benBr-Nm3_mono2.dir//
 Using version located at /usr/local/qchem/bin/qchem

 Parallel job on  1  processors

Total Memory Limit in MB = 2000
Mega-Array Size in MB = 192

Checking the input file for inconsistencies... 	...done.
Finally everything over in PARseQInput

--------------------------------------------------------------
User input:
--------------------------------------------------------------
$rem
SCF_PRINT                     1
BASIS                         6-311++g**
SCF_SAVE_MATRICES             1
SCF_CONVERGENCE               5
SCF_FINAL_PRINT               1
METHOD                        hf
JOBTYPE                       sp
$end

$molecule
0 1
N    -4.443847216    0.003241324    3.917575142
C    -5.269667216    -1.075483676    3.409420142
C    -4.151048216    -0.203416676    5.323037142
C    -5.102631216    1.280426324    3.720892142
H    -5.062163216    -0.220699676    5.941925142
H    -3.629556216    -1.150340676    5.453179142
H    -3.505905216    0.595924324    5.684173142
H    -6.064049216    1.341711324    4.255123142
H    -4.459570216    2.083221324    4.077923142
H    -5.289110216    1.436927324    2.659644142
H    -6.239899216    -1.138941676    3.927201142
H    -5.456675216    -0.924671676    2.347429142
H    -4.750743216    -2.024428676    3.534754142
$end


--------------------------------------------------------------
 ----------------------------------------------------------------
             Standard Nuclear Orientation (Angstroms)
    I     Atom           X                Y                Z
 ----------------------------------------------------------------
    1      N      -0.0000216633     0.0000501728     0.3962358766
    2      C       1.0864165381     0.8433348558    -0.0646011663
    3      C       0.1872934381    -1.3624115016    -0.0646040687
    4      C      -1.2736765142     0.5190070201    -0.0645994486
    5      H       0.1972584238    -1.4344998774    -1.1637653703
    6      H       1.1317740825    -1.7504058377     0.3135131294
    7      H      -0.6175929800    -1.9908306465     0.3133138688
    8      H      -1.3410708819     0.5463453018    -1.1637781424
    9      H      -2.0819587676    -0.1047762716     0.3136235021
   10      H      -1.4156115665     1.5302555660     0.3132167994
   11      H       1.1439860547     0.8877942567    -1.1637750961
   12      H       0.9501806075     1.8554223669     0.3131021256
   13      H       2.0329858989     0.4607616860     0.3137261485
 ----------------------------------------------------------------
 Molecular Point Group                 C1    NOp =  1
 Largest Abelian Subgroup              C1    NOp =  1
 Nuclear Repulsion Energy =   139.2317133186 hartrees
 There are       17 alpha and       17 beta electrons
 Requested basis set is 6-311++G(d,p)
 There are 69 shells and 151 basis functions

 Total QAlloc Memory Limit   2000 MB
 Mega-Array Size       188 MB
 MEM_STATIC part       192 MB

finished with qalloc call

                       Distance Matrix (Angstroms)
             N (  1)   C (  2)   C (  3)   C (  4)   H (  5)   H (  6)
   C (  2)  1.450465
   C (  3)  1.450435  2.381961
   C (  4)  1.450477  2.382274  2.382051
   H (  5)  2.128487  2.680913  1.101568  2.681045
   H (  6)  2.086121  2.621549  1.088832  3.328573  1.776364
   H (  7)  2.086115  3.328508  1.088841  2.621555  1.776302  1.765811
   H (  8)  2.128496  2.681247  2.680939  1.101582  2.508028  3.684076
   H (  9)  2.086211  3.328749  2.621871  1.088797  3.024182  3.610564
   H ( 10)  2.086220  2.621975  3.328600  1.088813  3.684101  4.153542
   H ( 11)  2.128492  1.101578  2.680833  2.681284  2.507856  3.023678
   H ( 12)  2.086193  1.088826  3.328530  2.621871  3.683968  3.610398
   H ( 13)  2.086189  1.088801  2.621769  3.328744  3.024052  2.387770
             H (  7)   H (  8)   H (  9)   H ( 10)   H ( 11)   H ( 12)
   H (  8)  3.023654
   H (  9)  2.387796  1.776398
   H ( 10)  3.610385  1.776274  1.765601
   H ( 11)  3.683943  2.508405  3.684376  3.024203
   H ( 12)  4.153502  3.024019  3.610574  2.388034  1.776241
   H ( 13)  3.610523  3.684373  4.153625  3.610629  1.776425  1.765657


 Job number = 2, Threshold = 1.00E-08
Integral type ranges set in mkLRange.C for JobNum: 2  <1-21|1-21>
Symmetry turned off temporarily
 Using the largest function pair in Schwarz integrals
Total number of integrals generated =          139176
Symmetry turned back on
 A cutoff of  1.0D-08 yielded   2322 shell pairs
 There are     11366 function pairs (     12000 Cartesian)
 Job number = 11, Threshold = 1.00E-08
Integral type ranges set in mkLRange.C for JobNum: 11  <1-21|22-22>
Total number of integrals generated =          156000
 Smallest overlap matrix eigenvalue = 1.93E-04
 Multipole matrices computed through 2nd order

 Scale SEOQF with 1.000000e-01/1.000000e-01/1.000000e-01

 Standard Electronic Orientation quadrupole field applied
 Nucleus-field energy     =     0.0000000029 hartrees
 ENuRep (before)= 139.2317133186
 ENucField = 0.0000000029
 ENuRep (after) = 139.2317133216
 Guess from superposition of atomic densities
 Warning:  Energy on first SCF cycle will be non-variational
 SAD guess density has 34.000000 electrons

 ==================================================
    GEN_SCFMAN: A general SCF calculation manager  
                                                   
    Authors:                                       
        -- Eric Jon Sundstrom 2008-2014            
        -- Paul Horn 2010-2015                     
        -- Yuezhi Mao 2012-                        
        -- Dmitri Zuev 2014                        
        -- Alec White 2015-                        
        -- David Stuck 2015                        
        -- Shaama M.S. 2015                        
        -- Shane Yost 2015-                         
        -- Joonho Lee 2016-                        
        -- David Small 2016-                       
        -- Daniel Levine 2016-                     
        -- Susi Lehtola 2017-                      
        -- Hugh Burton 2017-                       
 ==================================================
 Hartree-Fock
Finding J and K together
 Job number = 22, Threshold = 1.00E-08
Integral type ranges set in mkLRange.C for JobNum: 22  <1-21|1-21>
 MakeJK  time:  CPU       2.77 s  wall       2.79 s
 HF Exchange:              -25.65788506442761
 One-Electron:             -505.27994238607323
 Total Coulomb:            217.10776770538968
 Nuclear repulsion:        139.23171332157460
 A restricted SCF calculation will be
 performed using DIIS
 SCF converges when DIIS error is below 1.0e-05
 ---------------------------------------
  Cycle       Energy         DIIS error
 ---------------------------------------
Finding J and K together
 Job number = 22, Threshold = 1.00E-08
Integral type ranges set in mkLRange.C for JobNum: 22  <1-21|1-21>
 MakeJK  time:  CPU      10.48 s  wall      12.04 s
 HF Exchange:              -25.29125068074404
 One-Electron:             -508.88380415015956
 Total Coulomb:            221.66926115877041
 Nuclear repulsion:        139.23171332157460
    1    -174.5983464235      5.09e-02  
Finding J and K together
 Job number = 22, Threshold = 1.00E-08
Integral type ranges set in mkLRange.C for JobNum: 22  <1-21|1-21>
 MakeJK  time:  CPU      11.08 s  wall      12.76 s
 HF Exchange:              -25.38380436256578
 One-Electron:             -508.86372128626289
 Total Coulomb:            221.70136917816475
 Nuclear repulsion:        139.23171332157460
    2    -173.2740803506      3.30e-03  
Finding J and K together
 Job number = 22, Threshold = 1.00E-08
Integral type ranges set in mkLRange.C for JobNum: 22  <1-21|1-21>
 MakeJK  time:  CPU      11.61 s  wall      12.48 s
 HF Exchange:              -25.42426651880734
 One-Electron:             -509.04378623843775
 Total Coulomb:            221.91903001523329
 Nuclear repulsion:        139.23171332157460
    3    -173.3144431491      7.94e-04  
Finding J and K together
 Job number = 22, Threshold = 1.00E-08
Integral type ranges set in mkLRange.C for JobNum: 22  <1-21|1-21>
 MakeJK  time:  CPU      11.47 s  wall      12.29 s
 HF Exchange:              -25.42005193679032
 One-Electron:             -508.94223058344227
 Total Coulomb:            221.81300743948842
 Nuclear repulsion:        139.23171332157460
    4    -173.3173094204      3.00e-04  
Finding J and K together
 Job number = 22, Threshold = 1.00E-08
Integral type ranges set in mkLRange.C for JobNum: 22  <1-21|1-21>
 MakeJK  time:  CPU      11.37 s  wall      11.88 s
 HF Exchange:              -25.42311653785142
 One-Electron:             -508.96941221300091
 Total Coulomb:            221.84322998701458
 Nuclear repulsion:        139.23171332157460
    5    -173.3175617592      7.25e-05  
Finding J and K together
 Job number = 22, Threshold = 1.00E-08
Integral type ranges set in mkLRange.C for JobNum: 22  <1-21|1-21>
 MakeJK  time:  CPU      11.15 s  wall      13.65 s
 HF Exchange:              -25.42287593346618
 One-Electron:             -508.96282902454152
 Total Coulomb:            221.83640394738612
 Nuclear repulsion:        139.23171332157460
    6    -173.3175854423      1.85e-05  
    7    -173.3175876890      4.99e-06  Convergence criterion met
 ---------------------------------------
 SCF time:   CPU 70.67s  wall 79.00s 
 Total energy in the final basis set =     -173.3175876890
 HF Exchange:              -25.42287593346618
 One-Electron:             -508.96282902454152
 Total Coulomb:            221.83640394738612
 Nuclear repulsion:        139.23171332157460
Wall  1 = 79
Clock 1 = 70.79045104980469
 ==================================================
                  Done GEN_SCFMAN                  
 ==================================================

Symmetry turned off temporarily

 --------------------------------------------------------------

                    Orbital Energies (a.u.)
 --------------------------------------------------------------

 Alpha MOs
 -- Occupied --
-15.545 -11.239 -11.239 -11.239  -1.229  -0.951  -0.951  -0.807
 -0.645  -0.630  -0.630  -0.545  -0.545  -0.517  -0.500  -0.500
 -0.356
 -- Virtual --
  0.041   0.057   0.057   0.072   0.084   0.084   0.096   0.096
  0.116   0.119   0.165   0.168   0.168   0.183   0.184   0.184
  0.207   0.207   0.223   0.223   0.240   0.287   0.295   0.295
  0.299   0.338   0.338   0.339   0.374   0.380   0.380   0.407
  0.407   0.424   0.473   0.473   0.507   0.545   0.545   0.620
  0.689   0.689   0.730   0.772   0.772   0.799   0.851   0.860
  0.877   0.877   0.898   0.898   0.948   0.948   0.960   1.036
  1.070   1.070   1.123   1.215   1.215   1.284   1.284   1.416
  1.459   1.589   1.589   1.722   1.722   1.730   1.757   1.782
  1.782   1.839   1.839   1.841   1.903   1.903   1.916   2.006
  2.016   2.016   2.037   2.122   2.122   2.142   2.286   2.286
  2.328   2.381   2.381   2.454   2.469   2.469   2.524   2.766
  2.766   2.781   2.796   2.796   2.865   2.873   2.873   2.888
  2.937   2.937   2.946   2.998   2.998   3.038   3.116   3.123
  3.123   3.242   3.242   3.314   3.445   3.445   3.959   3.959
  4.150   4.178   4.178   4.195   4.222   4.246   4.246   4.737
  5.388   5.388  25.095  25.132  25.132  36.962
 --------------------------------------------------------------

          Ground-State Mulliken Net Atomic Charges

     Atom                 Charge (a.u.)
  ----------------------------------------
      1 N                    -0.071801
      2 C                    -0.327721
      3 C                    -0.327718
      4 C                    -0.327723
      5 H                     0.110454
      6 H                     0.120589
      7 H                     0.120582
      8 H                     0.110443
      9 H                     0.120622
     10 H                     0.120611
     11 H                     0.110445
     12 H                     0.120598
     13 H                     0.120617
  ----------------------------------------
  Sum of atomic charges =     0.000000

 -----------------------------------------------------------------
                    Cartesian Multipole Moments
 -----------------------------------------------------------------
    Charge (ESU x 10^10)
                 0.0000
    Dipole Moment (Debye)
         X      -0.0001      Y       0.0002      Z      -0.8291
       Tot       0.8291
    Quadrupole Moments (Debye-Ang)
        XX     -26.4462     XY      -0.0000     YY     -26.4481
        XZ       0.0002     YZ      -0.0004     ZZ     -30.1161
    Octopole Moments (Debye-Ang^2)
       XXX       0.3867    XXY      -0.8920    XYY      -0.3882
       YYY       0.8955    XXZ       2.3051    XYZ      -0.0001
       YYZ       2.3015    XZZ       0.0001    YZZ      -0.0003
       ZZZ      -1.8736
    Hexadecapole Moments (Debye-Ang^3)
      XXXX    -189.1713   XXXY      -0.0000   XXYY     -63.0516
      XYYY      -0.0000   YYYY    -189.1398   XXXZ       0.4782
      XXYZ      -1.1001   XYYZ      -0.4776   YYYZ       1.0993
      XXZZ     -42.8835   XYZZ      -0.0001   YYZZ     -42.8788
      XZZZ       0.0003   YZZZ      -0.0005   ZZZZ     -62.7583
 -----------------------------------------------------------------
 Mayer SCF Bond Order, atomic valence on the diagonal:

            1           2           3           4           5           6
    1   2.4555387   0.8987649   0.8987037   0.8987986   0.0100112  -0.0451239
    2   0.8987649   3.7135988  -0.0720352  -0.0720217  -0.0082638  -0.0025919
    3   0.8987037  -0.0720352   3.7135387  -0.0720419   0.9590863   1.0096353
    4   0.8987986  -0.0720217  -0.0720419   3.7136122  -0.0082678   0.0011351
    5   0.0100112  -0.0082638   0.9590863  -0.0082678   0.9177508  -0.0278731
    6  -0.0451239  -0.0025919   1.0096353   0.0011351  -0.0278731   0.9260296
    7  -0.0451261   0.0011348   1.0096342  -0.0025899  -0.0278792  -0.0136247
    8   0.0099775  -0.0082576  -0.0082668   0.9591037   0.0066334   0.0011226
    9  -0.0451095   0.0011382  -0.0025942   1.0096015   0.0027148  -0.0003191
   10  -0.0451154  -0.0025937   0.0011380   1.0096092   0.0011210   0.0021984
   11   0.0099879   0.9591006  -0.0082650  -0.0082613   0.0066343   0.0027121
   12  -0.0451193   1.0096170   0.0011368  -0.0025905   0.0011208  -0.0003184
   13  -0.0451109   1.0096072  -0.0025926   0.0011373   0.0027131  -0.0009227
            7           8           9          10          11          12
    1  -0.0451261   0.0099775  -0.0451095  -0.0451154   0.0099879  -0.0451193
    2   0.0011348  -0.0082576   0.0011382  -0.0025937   0.9591006   1.0096170
    3   1.0096342  -0.0082668  -0.0025942   0.0011380  -0.0082650   0.0011368
    4  -0.0025899   0.9591037   1.0096015   1.0096092  -0.0082613  -0.0025905
    5  -0.0278792   0.0066334   0.0027148   0.0011210   0.0066343   0.0011208
    6  -0.0136247   0.0011226  -0.0003191   0.0021984   0.0027121  -0.0003184
    7   0.9260222   0.0027132  -0.0009237  -0.0003182   0.0011218   0.0021988
    8   0.0027132   0.9177460  -0.0278671  -0.0278793   0.0066276   0.0027165
    9  -0.0009237  -0.0278671   0.9260169  -0.0136254   0.0011223  -0.0003184
   10  -0.0003182  -0.0278793  -0.0136254   0.9260079   0.0027170  -0.0009250
   11   0.0011218   0.0066276   0.0011223   0.0027170   0.9177493  -0.0278831
   12   0.0021988   0.0027165  -0.0003184  -0.0009250  -0.0278831   0.9260093
   13  -0.0003189   0.0011225   0.0021974  -0.0003186  -0.0278647  -0.0136260
           13
    1  -0.0451109
    2   1.0096072
    3  -0.0025926
    4   0.0011373
    5   0.0027131
    6  -0.0009227
    7  -0.0003189
    8   0.0011225
    9   0.0021974
   10  -0.0003186
   11  -0.0278647
   12  -0.0136260
   13   0.9260230


 JobOver = TRUE
Archival summary:
1\1\qciep03\SP\HF\BasisUnspecified\139\jcartus\ThuFeb112:20:462018ThuFeb112:20:462018\0\\#,HF,BasisUnspecified,\\0,1\N\C,1,1.45044\H,2,1.08883,1,109.659\H,2,1.08884,1,109.658,3,118.871,0\H,2,1.10157,1,112.313,3,-120.569,0\C,1,1.45046,2,110.392,3,59.3914,0\H,6,1.0888,1,109.664,2,-59.4097,0\H,6,1.08883,1,109.663,2,-178.274,0\H,6,1.10158,1,112.311,2,61.1702,0\C,1,1.45048,2,110.398,3,-178.251,0\H,10,1.0888,1,109.665,2,59.4064,0\H,10,1.08881,1,109.665,2,178.268,0\H,10,1.10158,1,112.31,2,-61.1708,0\\HF=-173.317588\\@

 Total job time:  79.57s(wall), 71.30s(cpu) 
 Thu Feb  1 12:20:46 2018

        *************************************************************
        *                                                           *
        *  Thank you very much for using Q-Chem.  Have a nice day.  *
        *                                                           *
        *************************************************************


*** MISSION COMPLETED -- STARFLEET OUT ***

0 sent ACK to 0 
now end server 0 ... 
