Process 0 of 1 is on qciep03 - thread support 0
initial socket setup ...start
initial socket setup ...done 
now start server 0 ... 
qciep03.tugraz.at 127.0.1
Q-Chem Developer Version! Running on 127.0.1.*
                  Welcome to Q-Chem
     A Quantum Leap Into The Future Of Chemistry


 Q-Chem 5.0, Q-Chem, Inc., Pleasanton, CA (2017)

 Yihan Shao,  Zhengting Gan,  E. Epifanovsky,  A. T. B. Gilbert,  M. Wormit,  
 J. Kussmann,  A. W. Lange,  A. Behn,  Jia Deng,  Xintian Feng,  D. Ghosh,  
 M. Goldey,  P. R. Horn,  L. D. Jacobson,  I. Kaliman,  T. Kus,  A. Landau,  
 Jie Liu,  E. I. Proynov,  R. M. Richard,  R. P. Steele,  E. J. Sundstrom,  
 H. L. Woodcock III,  P. M. Zimmerman,  D. Zuev,  B. Albrecht,  E. Alguire,  
 S. A. Baeppler,  D. Barton,  Z. Benda,  Y. A. Bernard,  E. J. Berquist,  
 K. B. Bravaya,  H. Burton,  D. Casanova,  Chun-Min Chang,  Yunqing Chen,  
 A. Chien,  K. D. Closser,  M. P. Coons,  S. Dasgupta,  A. L. Dempwolff,  
 M. Diedenhofen,  Hainam Do,  R. G. Edgar,  Po-Tung Fang,  S. Fatehi,  
 Qingguo Feng,  J. Fosso-Tande,  Qinghui Ge,  A. Ghysels,  G. Gidofalvi,  
 J. Gomes,  J. Gonthier,  A. Gunina,  M. W. D. Hanson-Heine,  
 P. H. P. Harbach,  A. W. Hauser,  J. E. Herr,  E. G. Hohenstein,  
 Z. C. Holden,  Kerwin Hui,  T.-C. Jagau,  Hyunjun Ji,  B. Kaduk,  
 K. Khistyaev,  Jaehoon Kim,  P. Klunzinger,  K. Koh,  D. Kosenkov,  
 L. Koulias,  T. Kowalczyk,  C. M. Krauter,  A. Kunitsa,  Ka Un Lao,  
 A. Laurent,  K. V. Lawler,  Joonho Lee,  D. Lefrancois,  S. Lehtola,  
 D. S. Levine,  Yi-Pei Li,  You-Sheng Lin,  Fenglai Liu,  E. Livshits,  
 A. Luenser,  P. Manohar,  E. Mansoor,  S. F. Manzer,  Shan-Ping Mao,  
 Yuezhi Mao,  N. Mardirossian,  A. V. Marenich,  T. Markovich,  
 L. A. Martinez-Martinez,  S. A. Maurer,  N. J. Mayhall,  S. C. McKenzie,  
 J.-M. Mewes,  A. F. Morrison,  J. W. Mullinax,  K. Nanda,  
 T. S. Nguyen-Beck,  R. Olivares-Amaya,  J. A. Parkhill,  T. M. Perrine,  
 F. Plasser,  S. Prager,  A. Prociuk,  E. Ramos,  D. R. Rehn,  F. Rob,  
 M. Schneider,  N. Sergueev,  S. M. Sharada,  S. Sharma,  D. W. Small,  
 T. Stauch,  T. Stein,  Yu-Chuan Su,  A. J. W. Thom,  A. Tkatchenko,  
 T. Tsuchimochi,  L. Vogt,  O. Vydrov,  M. A. Watson,  J. Wenzel,  
 M. de Wergifosse,  T. A. Wesolowski,  A. White,  J. Witte,  A. Yamada,  
 Jun Yang,  K. Yao,  S. Yeganeh,  S. R. Yost,  Zhi-Qiang You,  A. Zech,  
 Igor Ying Zhang,  Xing Zhang,  Yan Zhao,  Ying Zhu,  B. R. Brooks,  
 G. K. L. Chan,  C. J. Cramer,  M. S. Gordon,  W. J. Hehre,  A. Klamt,  
 M. W. Schmidt,  C. D. Sherrill,  D. G. Truhlar,  A. Aspuru-Guzik,  R. Baer,  
 A. T. Bell,  N. A. Besley,  Jeng-Da Chai,  R. A. DiStasio Jr.,  A. Dreuw,  
 B. D. Dunietz,  T. R. Furlani,  Chao-Ping Hsu,  Yousung Jung,  Jing Kong,  
 D. S. Lambrecht,  WanZhen Liang,  C. Ochsenfeld,  V. A. Rassolov,  
 L. V. Slipchenko,  J. E. Subotnik,  T. Van Voorhis,  J. M. Herbert,  
 A. I. Krylov,  P. M. W. Gill,  M. Head-Gordon

 Contributors to earlier versions of Q-Chem not listed above: 
 R. D. Adamson,  B. Austin,  J. Baker,  G. J. O. Beran,  K. Brandhorst,  
 S. T. Brown,  E. F. C. Byrd,  A. K. Chakraborty,  C.-L. Cheng,  
 Siu Hung Chien,  D. M. Chipman,  D. L. Crittenden,  H. Dachsel,  
 R. J. Doerksen,  A. D. Dutoi,  L. Fusti-Molnar,  W. A. Goddard III,  
 A. Golubeva-Zadorozhnaya,  S. R. Gwaltney,  G. Hawkins,  A. Heyden,  
 S. Hirata,  G. Kedziora,  F. J. Keil,  C. Kelley,  Jihan Kim,  R. A. King,  
 R. Z. Khaliullin,  P. P. Korambath,  W. Kurlancheek,  A. M. Lee,  M. S. Lee,  
 S. V. Levchenko,  Ching Yeh Lin,  D. Liotard,  R. C. Lochan,  I. Lotan,  
 P. E. Maslen,  N. Nair,  D. P. O'Neill,  D. Neuhauser,  E. Neuscamman,  
 C. M. Oana,  R. Olson,  B. Peters,  R. Peverati,  P. A. Pieniazek,  
 Y. M. Rhee,  J. Ritchie,  M. A. Rohrdanz,  E. Rosta,  N. J. Russ,  
 H. F. Schaefer III,  N. E. Schultz,  N. Shenvi,  A. C. Simmonett,  A. Sodt,  
 D. Stuck,  K. S. Thanthiriwatte,  V. Vanovschi,  Tao Wang,  A. Warshel,  
 C. F. Williams,  Q. Wu,  X. Xu,  W. Zhang

 Please cite Q-Chem as follows:
 Y. Shao et al., Mol. Phys. 113, 184-215 (2015)
 DOI: 10.1080/00268976.2014.952696

 Q-Chem 5.0.2 for Intel X86 EM64T Linux

 Parts of Q-Chem use Armadillo 5.200.1 (Boston Tea Smuggler).
 http://arma.sourceforge.net/

 Q-Chem begins on Thu Feb  1 12:23:37 2018  


Host: 0

     Scratch files written to /home/jcartus/scratch/25_benBr-mSH.dir//
 Using version located at /usr/local/qchem/bin/qchem

 Parallel job on  1  processors

Total Memory Limit in MB = 2000
Mega-Array Size in MB = 192

Checking the input file for inconsistencies... 	...done.
Finally everything over in PARseQInput

--------------------------------------------------------------
User input:
--------------------------------------------------------------
$rem
SCF_PRINT                     1
BASIS                         6-311++g**
SCF_SAVE_MATRICES             1
SCF_CONVERGENCE               5
SCF_FINAL_PRINT               1
METHOD                        hf
JOBTYPE                       sp
$end

$molecule
0 1
C    -0.189833176    -0.645396435    0.069807761
C    1.121636324    -0.354065576    0.439096514
C    1.486520953    0.962572632    0.712107225
C    0.54932939    1.989209324    0.617868956
C    -0.757627135    1.68186263    0.246856908
C    -1.13819046    0.370551816    -0.028582325
Br    -2.038462778    3.070459841    0.115165429
H    1.852935245    -1.146434699    0.514119204
H    0.825048723    3.012176989    0.829385472
H    2.502259769    1.196433556    1.000317333
H    -2.157140187    0.151608161    -0.313181471
H    -0.480820487    -1.664983631    -0.142918416
S    -4.157443472    5.729584377    -0.878761129
H    -4.823791426    4.796089466    -1.563433338
C    -2.82833852    5.970593053    -2.091189515
H    -2.167577293    6.722356639    -1.668621815
H    -2.264954814    5.054835899    -2.240198499
H    -3.218524904    6.337447714    -3.035087058
$end


--------------------------------------------------------------
 ----------------------------------------------------------------
             Standard Nuclear Orientation (Angstroms)
    I     Atom           X                Y                Z
 ----------------------------------------------------------------
    1      C       3.4999660376    -1.0281793480    -0.5750826239
    2      C       4.1448224225     0.1847593683    -0.3424025534
    3      C       3.4134129329     1.2805222114     0.1109800243
    4      C       2.0422106526     1.1715705443     0.3326230147
    5      C       1.4119717033    -0.0476368407     0.0947585418
    6      C       2.1293521294    -1.1524955924    -0.3578822973
    7      Br     -0.4515449688    -0.2054228405     0.3922379449
    8      H       5.2084169265     0.2751289495    -0.5123302226
    9      H       1.4691459953     2.0167901211     0.6853608726
   10      H       3.9070348630     2.2249927019     0.2948120760
   11      H       1.6231636746    -2.0903496009    -0.5350676556
   12      H       4.0610193796    -1.8833696266    -0.9262988346
   13      S      -3.9882325712    -0.2421053685     0.1937242744
   14      H      -3.8248791038    -1.3393742504    -0.5502683493
   15      C      -3.6522373715     0.9582021958    -1.1257289165
   16      H      -3.7386380040     1.9401835209    -0.6690397911
   17      H      -2.6450759388     0.8408930322    -1.5131310991
   18      H      -4.3813837837     0.8781352347    -1.9255445950
 ----------------------------------------------------------------
 Molecular Point Group                 C1    NOp =  1
 Largest Abelian Subgroup              C1    NOp =  1
 Nuclear Repulsion Energy =   705.2111144174 hartrees
 There are       51 alpha and       51 beta electrons
 Requested basis set is 6-311++G(d,p)
 There are 119 shells and 295 basis functions

 Total QAlloc Memory Limit   2000 MB
 Mega-Array Size       188 MB
 MEM_STATIC part       192 MB

finished with qalloc call
 Job number = 2, Threshold = 1.00E-08
Integral type ranges set in mkLRange.C for JobNum: 2  <1-21|1-21>
Symmetry turned off temporarily
 Using the largest function pair in Schwarz integrals
Total number of integrals generated =          466537
Symmetry turned back on
 A cutoff of  1.0D-08 yielded   4989 shell pairs
 There are     31675 function pairs (     33943 Cartesian)
 Job number = 11, Threshold = 1.00E-08
Integral type ranges set in mkLRange.C for JobNum: 11  <1-21|22-22>
Total number of integrals generated =          608922
 Smallest overlap matrix eigenvalue = 1.00E-06

 Q-Chem warning in module /usr/local/qchem/stvman/mkSTV.C, line 295:

 Overlap eigenvalue is smaller than square root of threshold

 Multipole matrices computed through 2nd order

 Scale SEOQF with 1.000000e-02/1.000000e-01/1.000000e-01

 Standard Electronic Orientation quadrupole field applied
 Nucleus-field energy     =     0.0000000045 hartrees
 ENuRep (before)= 705.2111144174
 ENucField = 0.0000000045
 ENuRep (after) = 705.2111144219
 Guess from superposition of atomic densities
 Warning:  Energy on first SCF cycle will be non-variational
 SAD guess density has 102.000000 electrons

 ==================================================
    GEN_SCFMAN: A general SCF calculation manager  
                                                   
    Authors:                                       
        -- Eric Jon Sundstrom 2008-2014            
        -- Paul Horn 2010-2015                     
        -- Yuezhi Mao 2012-                        
        -- Dmitri Zuev 2014                        
        -- Alec White 2015-                        
        -- David Stuck 2015                        
        -- Shaama M.S. 2015                        
        -- Shane Yost 2015-                         
        -- Joonho Lee 2016-                        
        -- David Small 2016-                       
        -- Daniel Levine 2016-                     
        -- Susi Lehtola 2017-                      
        -- Hugh Burton 2017-                       
 ==================================================
 Hartree-Fock
Finding J and K together
 Job number = 22, Threshold = 1.00E-08
Integral type ranges set in mkLRange.C for JobNum: 22  <1-21|1-21>
 MakeJK  time:  CPU      20.40 s  wall      20.42 s
 HF Exchange:              -155.15237103031919
 One-Electron:             -5894.86564202863974
 Total Coulomb:            2101.50671701238161
 Nuclear repulsion:        705.21111442188703
 A restricted SCF calculation will be
 performed using DIIS
 SCF converges when DIIS error is below 1.0e-05
 ---------------------------------------
  Cycle       Energy         DIIS error
 ---------------------------------------
Finding J and K together
 Job number = 22, Threshold = 1.00E-08
Integral type ranges set in mkLRange.C for JobNum: 22  <1-21|1-21>
 MakeJK  time:  CPU      71.26 s  wall      71.35 s
 HF Exchange:              -153.99754386573750
 One-Electron:             -5900.02855795039977
 Total Coulomb:            2108.64103102962372
 Nuclear repulsion:        705.21111442188703
    1   -3243.3001816247      3.61e-02  
Finding J and K together
 Job number = 22, Threshold = 1.00E-08
Integral type ranges set in mkLRange.C for JobNum: 22  <1-21|1-21>
 MakeJK  time:  CPU      53.38 s  wall      53.45 s
 HF Exchange:              -154.17376133138819
 One-Electron:             -5901.37744230191402
 Total Coulomb:            2110.07594384489357
 Nuclear repulsion:        705.21111442188703
    2   -3240.1739563646      2.51e-03  
Finding J and K together
 Job number = 22, Threshold = 1.00E-08
Integral type ranges set in mkLRange.C for JobNum: 22  <1-21|1-21>
 MakeJK  time:  CPU      41.33 s  wall      41.36 s
 HF Exchange:              -154.18917553468731
 One-Electron:             -5900.62290309445962
 Total Coulomb:            2109.32513496419142
 Nuclear repulsion:        705.21111442188703
    3   -3240.2641453665      1.07e-03  
Finding J and K together
 Job number = 22, Threshold = 1.00E-08
Integral type ranges set in mkLRange.C for JobNum: 22  <1-21|1-21>
 MakeJK  time:  CPU      40.44 s  wall      40.47 s
 HF Exchange:              -154.20438918503780
 One-Electron:             -5900.93768800665748
 Total Coulomb:            2109.65152937854873
 Nuclear repulsion:        705.21111442188703
    4   -3240.2758292431      5.11e-04  
Finding J and K together
 Job number = 22, Threshold = 1.00E-08
Integral type ranges set in mkLRange.C for JobNum: 22  <1-21|1-21>
 MakeJK  time:  CPU      39.56 s  wall      39.59 s
 HF Exchange:              -154.20767052114346
 One-Electron:             -5900.90633388236256
 Total Coulomb:            2109.62330316126236
 Nuclear repulsion:        705.21111442188703
    5   -3240.2794333913      1.02e-04  
Finding J and K together
 Job number = 22, Threshold = 1.00E-08
Integral type ranges set in mkLRange.C for JobNum: 22  <1-21|1-21>
 MakeJK  time:  CPU      38.48 s  wall      38.51 s
 HF Exchange:              -154.20742373372164
 One-Electron:             -5900.88691088993255
 Total Coulomb:            2109.60361284400369
 Nuclear repulsion:        705.21111442188703
    6   -3240.2795868204      2.91e-05  
Finding J and K together
 Job number = 22, Threshold = 1.00E-08
Integral type ranges set in mkLRange.C for JobNum: 22  <1-21|1-21>
 MakeJK  time:  CPU      38.24 s  wall      38.26 s
 HF Exchange:              -154.20793195539522
 One-Electron:             -5900.89309874846003
 Total Coulomb:            2109.61030552678994
 Nuclear repulsion:        705.21111442188703
    7   -3240.2796073578      1.03e-05  
    8   -3240.2796107552      4.15e-06  Convergence criterion met
 ---------------------------------------
 SCF time:   CPU 346.18s  wall 346.00s 
 Total energy in the final basis set =    -3240.2796107552
 HF Exchange:              -154.20793195539522
 One-Electron:             -5900.89309874846003
 Total Coulomb:            2109.61030552678994
 Nuclear repulsion:        705.21111442188703
Wall  1 = 346
Clock 1 = 346.43811035156250
 ==================================================
                  Done GEN_SCFMAN                  
 ==================================================

Symmetry turned off temporarily

 --------------------------------------------------------------

                    Orbital Energies (a.u.)
 --------------------------------------------------------------

 Alpha MOs
 -- Occupied --
******* -91.949 -65.156 -58.516 -58.515 -58.515 -11.300 -11.254
-11.254 -11.254 -11.252 -11.252 -11.248  -9.836  -8.952  -7.450
 -7.441  -7.441  -6.635  -6.634  -6.632  -3.190  -3.186  -3.185
 -3.176  -3.176  -1.177  -1.073  -1.038  -1.034  -0.974  -0.866
 -0.847  -0.819  -0.712  -0.646  -0.645  -0.606  -0.606  -0.593
 -0.574  -0.532  -0.526  -0.516  -0.493  -0.457  -0.437  -0.414
 -0.354  -0.352  -0.333
 -- Virtual --
  0.036   0.044   0.046   0.057   0.059   0.071   0.076   0.082
  0.089   0.097   0.100   0.108   0.116   0.123   0.134   0.136
  0.140   0.146   0.148   0.157   0.163   0.170   0.174   0.177
  0.181   0.185   0.188   0.194   0.198   0.202   0.208   0.211
  0.215   0.219   0.220   0.222   0.231   0.235   0.241   0.243
  0.259   0.266   0.282   0.286   0.293   0.306   0.311   0.315
  0.325   0.332   0.336   0.347   0.356   0.371   0.401   0.406
  0.413   0.426   0.430   0.450   0.460   0.477   0.481   0.493
  0.503   0.509   0.545   0.572   0.599   0.613   0.627   0.635
  0.651   0.675   0.717   0.719   0.722   0.731   0.733   0.744
  0.748   0.751   0.782   0.788   0.789   0.795   0.819   0.831
  0.858   0.867   0.876   0.897   0.923   0.925   0.931   0.936
  0.940   0.948   0.974   0.979   0.988   1.004   1.013   1.018
  1.040   1.054   1.056   1.068   1.073   1.111   1.113   1.128
  1.136   1.185   1.206   1.208   1.232   1.240   1.263   1.300
  1.309   1.321   1.346   1.365   1.375   1.377   1.521   1.525
  1.627   1.714   1.722   1.733   1.771   1.779   1.786   1.815
  1.820   1.823   1.831   1.858   1.885   1.907   1.909   1.930
  1.953   1.961   1.982   1.996   2.008   2.043   2.101   2.119
  2.126   2.147   2.194   2.217   2.219   2.219   2.233   2.249
  2.270   2.306   2.324   2.349   2.351   2.367   2.382   2.447
  2.463   2.499   2.530   2.595   2.646   2.660   2.675   2.741
  2.787   2.793   2.803   2.825   2.840   2.852   2.907   2.923
  2.954   2.975   2.997   3.007   3.017   3.036   3.040   3.055
  3.079   3.162   3.180   3.185   3.194   3.223   3.278   3.283
  3.313   3.472   3.547   3.568   3.606   3.759   3.785   3.898
  3.917   4.028   4.142   4.157   4.175   4.398   4.457   4.539
  4.559   4.568   4.620   4.655   4.792   4.988   5.264   7.393
  8.264   8.355   8.471   8.565  18.442  18.484  18.523  24.697
 25.082  25.086  25.125  25.226  25.249  25.350  49.626 192.406
293.946 294.039 294.1901028.598
 --------------------------------------------------------------

          Ground-State Mulliken Net Atomic Charges

     Atom                 Charge (a.u.)
  ----------------------------------------
      1 C                    -0.241118
      2 C                    -0.314656
      3 C                    -0.226715
      4 C                    -0.181602
      5 C                     0.588268
      6 C                    -0.177892
      7 Br                   -0.601946
      8 H                     0.206288
      9 H                     0.264395
     10 H                     0.204985
     11 H                     0.264528
     12 H                     0.204456
     13 S                     0.106214
     14 H                     0.004188
     15 C                    -0.552944
     16 H                     0.154138
     17 H                     0.155657
     18 H                     0.143757
  ----------------------------------------
  Sum of atomic charges =     0.000000

 -----------------------------------------------------------------
                    Cartesian Multipole Moments
 -----------------------------------------------------------------
    Charge (ESU x 10^10)
                 0.0000
    Dipole Moment (Debye)
         X       2.1646      Y       0.5016      Z      -1.9147
       Tot       2.9331
    Quadrupole Moments (Debye-Ang)
        XX     -71.2396     XY      -0.8397     YY     -67.8146
        XZ       4.4970     YZ       2.8019     ZZ     -78.2551
    Octopole Moments (Debye-Ang^2)
       XXX      56.3226    XXY       5.9859    XYY      -6.3600
       YYY      -5.8009    XXZ     -28.3670    XYZ       7.1288
       YYZ       3.3807    XZZ     -22.0745    YZZ      -2.9152
       ZZZ      10.8104
    Hexadecapole Moments (Debye-Ang^3)
      XXXX   -3948.3767   XXXY      -9.7572   XXYY    -635.4148
      XYYY       7.9473   YYYY    -360.8130   XXXZ      43.8116
      XXYZ      22.9871   XYYZ      -2.2138   YYYZ      14.5673
      XXZZ    -705.8051   XYZZ      -4.4759   YYZZ    -103.3426
      XZZZ      13.1787   YZZZ      -3.3317   ZZZZ    -220.2586
 -----------------------------------------------------------------
 Mayer SCF Bond Order, atomic valence on the diagonal:

            1           2           3           4           5           6
    1   4.4837161   1.8846339  -0.1676908   0.0135078  -0.2850616   1.7610545
    2   1.8846339   4.5850148   1.8748354  -0.0228466   0.1173771  -0.0216508
    3  -0.1676908   1.8748354   4.4511341   1.7610672  -0.3035305   0.0027492
    4   0.0135078  -0.0228466   1.7610672   4.4425788   1.7168585   0.1412564
    5  -0.2850616   0.1173771  -0.3035305   1.7168585   3.5149022   1.7140753
    6   1.7610545  -0.0216508   0.0027492   0.1412564   1.7140753   4.3847324
    7   0.1593384  -0.0081285   0.1731714   0.2476258   0.2483378   0.2196155
    8   0.1299900   0.7295485   0.1286752  -0.0501775   0.0300134  -0.0501424
    9   0.0221836  -0.0410242   0.1288816   0.6486606   0.1445684  -0.0305345
   10  -0.0114403   0.0578341   0.8383224   0.0209443   0.0080262  -0.0081173
   11   0.1336852  -0.0393676   0.0216588  -0.0305241   0.1364579   0.6569689
   12   0.8438408   0.0553396  -0.0106451  -0.0089154   0.0098446   0.0159408
   13  -0.0000200  -0.0041707   0.0003391   0.0017347  -0.0178732  -0.0138063
   14  -0.0000578   0.0003766   0.0007188   0.0005519  -0.0036381  -0.0002731
   15   0.0009003   0.0011708   0.0038627   0.0013772  -0.0059476   0.0016572
   16  -0.0002070  -0.0001700  -0.0004289  -0.0000875   0.0009627  -0.0001319
   17  -0.0009529   0.0012887  -0.0005424   0.0006979   0.0040894  -0.0034156
   18   0.0000120  -0.0000316  -0.0003099   0.0008478   0.0003421  -0.0005134
            7           8           9          10          11          12
    1   0.1593384   0.1299900   0.0221836  -0.0114403   0.1336852   0.8438408
    2  -0.0081285   0.7295485  -0.0410242   0.0578341  -0.0393676   0.0553396
    3   0.1731714   0.1286752   0.1288816   0.8383224   0.0216588  -0.0106451
    4   0.2476258  -0.0501775   0.6486606   0.0209443  -0.0305241  -0.0089154
    5   0.2483378   0.0300134   0.1445684   0.0080262   0.1364579   0.0098446
    6   0.2196155  -0.0501424  -0.0305345  -0.0081173   0.6569689   0.0159408
    7   1.0633598  -0.0028816  -0.0121222   0.0042009  -0.0194919   0.0046412
    8  -0.0028816   0.9349891   0.0002301   0.0097490   0.0002573   0.0096588
    9  -0.0121222   0.0002301   0.8664242   0.0065801   0.0002786  -0.0001014
   10   0.0042009   0.0097490   0.0065801   0.9269588  -0.0000586   0.0008212
   11  -0.0194919   0.0002573   0.0002786  -0.0000586   0.8638966   0.0060213
   12   0.0046412   0.0096588  -0.0001014   0.0008212   0.0060213   0.9265546
   13   0.0310683  -0.0000240  -0.0005843   0.0001421  -0.0017749   0.0003158
   14   0.0045933   0.0000025  -0.0000197   0.0000114  -0.0001181  -0.0000233
   15  -0.0044224   0.0000107  -0.0002871   0.0000239   0.0002714  -0.0000835
   16  -0.0024545  -0.0000225  -0.0001243   0.0000178  -0.0001515   0.0000577
   17   0.0214110   0.0000976  -0.0001076  -0.0001035  -0.0002730  -0.0001612
   18  -0.0011429   0.0000040  -0.0000533   0.0000050   0.0000569   0.0000025
           13          14          15          16          17          18
    1  -0.0000200  -0.0000578   0.0009003  -0.0002070  -0.0009529   0.0000120
    2  -0.0041707   0.0003766   0.0011708  -0.0001700   0.0012887  -0.0000316
    3   0.0003391   0.0007188   0.0038627  -0.0004289  -0.0005424  -0.0003099
    4   0.0017347   0.0005519   0.0013772  -0.0000875   0.0006979   0.0008478
    5  -0.0178732  -0.0036381  -0.0059476   0.0009627   0.0040894   0.0003421
    6  -0.0138063  -0.0002731   0.0016572  -0.0001319  -0.0034156  -0.0005134
    7   0.0310683   0.0045933  -0.0044224  -0.0024545   0.0214110  -0.0011429
    8  -0.0000240   0.0000025   0.0000107  -0.0000225   0.0000976   0.0000040
    9  -0.0005843  -0.0000197  -0.0002871  -0.0001243  -0.0001076  -0.0000533
   10   0.0001421   0.0000114   0.0000239   0.0000178  -0.0001035   0.0000050
   11  -0.0017749  -0.0001181   0.0002714  -0.0001515  -0.0002730   0.0000569
   12   0.0003158  -0.0000233  -0.0000835   0.0000577  -0.0001612   0.0000025
   13   1.6486563   0.9845770   0.7290809  -0.0100807  -0.0360470  -0.0142205
   14   0.9845770   1.0041798   0.0063467   0.0071484   0.0007168   0.0032665
   15   0.7290809   0.0063467   3.6470344   0.9751530   0.9578415   0.9800786
   16  -0.0100807   0.0071484   0.9751530   0.9231139  -0.0248210  -0.0215459
   17  -0.0360470   0.0007168   0.9578415  -0.0248210   0.8948648  -0.0248540
   18  -0.0142205   0.0032665   0.9800786  -0.0215459  -0.0248540   0.9219440


 JobOver = TRUE
Archival summary:
1\1\qciep03\SP\HF\BasisUnspecified\r1179\jcartus\ThuFeb112:29:262018ThuFeb112:29:262018\0\\#,HF,BasisUnspecified,\\0,1\Br\C,1,1.8937\C,2,1.39292,1,119.457\H,3,1.08037,2,120.037,1,-0.094694,0\C,2,1.39293,1,119.429,3,-179.988,0\H,5,1.08038,2,120.035,1,0.103332,0\C,5,1.39327,2,119.115,1,-179.97,0\H,7,1.08143,5,119.372,2,-179.967,0\C,7,1.39327,5,120.458,2,-0.0066993,0\H,9,1.08087,7,120.131,5,-179.983,0\C,9,1.39327,7,119.739,5,-0.0229722,0\H,11,1.08143,9,120.169,7,-179.953,0\H,1,3.08817,2,125.018,3,-102.297,0\C,13,1.08546,1,118.39,2,-162.545,0\H,14,1.08525,13,110.634,1,-153.908,0\H,14,1.08642,13,108.754,1,86.5938,0\S,14,1.8151,13,111.084,1,-29.8233,0\H,17,1.33574,14,96.6439,13,-61.4692,0\\HF=-3240.27961\\@

 Total job time:  348.21s(wall), 347.87s(cpu) 
 Thu Feb  1 12:29:26 2018

        *************************************************************
        *                                                           *
        *  Thank you very much for using Q-Chem.  Have a nice day.  *
        *                                                           *
        *************************************************************


*** MISSION COMPLETED -- STARFLEET OUT ***

0 sent ACK to 0 
now end server 0 ... 
