Process 0 of 1 is on qciep03 - thread support 0
initial socket setup ...start
initial socket setup ...done 
now start server 0 ... 
qciep03.tugraz.at 127.0.1
Q-Chem Developer Version! Running on 127.0.1.*
                  Welcome to Q-Chem
     A Quantum Leap Into The Future Of Chemistry


 Q-Chem 5.0, Q-Chem, Inc., Pleasanton, CA (2017)

 Yihan Shao,  Zhengting Gan,  E. Epifanovsky,  A. T. B. Gilbert,  M. Wormit,  
 J. Kussmann,  A. W. Lange,  A. Behn,  Jia Deng,  Xintian Feng,  D. Ghosh,  
 M. Goldey,  P. R. Horn,  L. D. Jacobson,  I. Kaliman,  T. Kus,  A. Landau,  
 Jie Liu,  E. I. Proynov,  R. M. Richard,  R. P. Steele,  E. J. Sundstrom,  
 H. L. Woodcock III,  P. M. Zimmerman,  D. Zuev,  B. Albrecht,  E. Alguire,  
 S. A. Baeppler,  D. Barton,  Z. Benda,  Y. A. Bernard,  E. J. Berquist,  
 K. B. Bravaya,  H. Burton,  D. Casanova,  Chun-Min Chang,  Yunqing Chen,  
 A. Chien,  K. D. Closser,  M. P. Coons,  S. Dasgupta,  A. L. Dempwolff,  
 M. Diedenhofen,  Hainam Do,  R. G. Edgar,  Po-Tung Fang,  S. Fatehi,  
 Qingguo Feng,  J. Fosso-Tande,  Qinghui Ge,  A. Ghysels,  G. Gidofalvi,  
 J. Gomes,  J. Gonthier,  A. Gunina,  M. W. D. Hanson-Heine,  
 P. H. P. Harbach,  A. W. Hauser,  J. E. Herr,  E. G. Hohenstein,  
 Z. C. Holden,  Kerwin Hui,  T.-C. Jagau,  Hyunjun Ji,  B. Kaduk,  
 K. Khistyaev,  Jaehoon Kim,  P. Klunzinger,  K. Koh,  D. Kosenkov,  
 L. Koulias,  T. Kowalczyk,  C. M. Krauter,  A. Kunitsa,  Ka Un Lao,  
 A. Laurent,  K. V. Lawler,  Joonho Lee,  D. Lefrancois,  S. Lehtola,  
 D. S. Levine,  Yi-Pei Li,  You-Sheng Lin,  Fenglai Liu,  E. Livshits,  
 A. Luenser,  P. Manohar,  E. Mansoor,  S. F. Manzer,  Shan-Ping Mao,  
 Yuezhi Mao,  N. Mardirossian,  A. V. Marenich,  T. Markovich,  
 L. A. Martinez-Martinez,  S. A. Maurer,  N. J. Mayhall,  S. C. McKenzie,  
 J.-M. Mewes,  A. F. Morrison,  J. W. Mullinax,  K. Nanda,  
 T. S. Nguyen-Beck,  R. Olivares-Amaya,  J. A. Parkhill,  T. M. Perrine,  
 F. Plasser,  S. Prager,  A. Prociuk,  E. Ramos,  D. R. Rehn,  F. Rob,  
 M. Schneider,  N. Sergueev,  S. M. Sharada,  S. Sharma,  D. W. Small,  
 T. Stauch,  T. Stein,  Yu-Chuan Su,  A. J. W. Thom,  A. Tkatchenko,  
 T. Tsuchimochi,  L. Vogt,  O. Vydrov,  M. A. Watson,  J. Wenzel,  
 M. de Wergifosse,  T. A. Wesolowski,  A. White,  J. Witte,  A. Yamada,  
 Jun Yang,  K. Yao,  S. Yeganeh,  S. R. Yost,  Zhi-Qiang You,  A. Zech,  
 Igor Ying Zhang,  Xing Zhang,  Yan Zhao,  Ying Zhu,  B. R. Brooks,  
 G. K. L. Chan,  C. J. Cramer,  M. S. Gordon,  W. J. Hehre,  A. Klamt,  
 M. W. Schmidt,  C. D. Sherrill,  D. G. Truhlar,  A. Aspuru-Guzik,  R. Baer,  
 A. T. Bell,  N. A. Besley,  Jeng-Da Chai,  R. A. DiStasio Jr.,  A. Dreuw,  
 B. D. Dunietz,  T. R. Furlani,  Chao-Ping Hsu,  Yousung Jung,  Jing Kong,  
 D. S. Lambrecht,  WanZhen Liang,  C. Ochsenfeld,  V. A. Rassolov,  
 L. V. Slipchenko,  J. E. Subotnik,  T. Van Voorhis,  J. M. Herbert,  
 A. I. Krylov,  P. M. W. Gill,  M. Head-Gordon

 Contributors to earlier versions of Q-Chem not listed above: 
 R. D. Adamson,  B. Austin,  J. Baker,  G. J. O. Beran,  K. Brandhorst,  
 S. T. Brown,  E. F. C. Byrd,  A. K. Chakraborty,  C.-L. Cheng,  
 Siu Hung Chien,  D. M. Chipman,  D. L. Crittenden,  H. Dachsel,  
 R. J. Doerksen,  A. D. Dutoi,  L. Fusti-Molnar,  W. A. Goddard III,  
 A. Golubeva-Zadorozhnaya,  S. R. Gwaltney,  G. Hawkins,  A. Heyden,  
 S. Hirata,  G. Kedziora,  F. J. Keil,  C. Kelley,  Jihan Kim,  R. A. King,  
 R. Z. Khaliullin,  P. P. Korambath,  W. Kurlancheek,  A. M. Lee,  M. S. Lee,  
 S. V. Levchenko,  Ching Yeh Lin,  D. Liotard,  R. C. Lochan,  I. Lotan,  
 P. E. Maslen,  N. Nair,  D. P. O'Neill,  D. Neuhauser,  E. Neuscamman,  
 C. M. Oana,  R. Olson,  B. Peters,  R. Peverati,  P. A. Pieniazek,  
 Y. M. Rhee,  J. Ritchie,  M. A. Rohrdanz,  E. Rosta,  N. J. Russ,  
 H. F. Schaefer III,  N. E. Schultz,  N. Shenvi,  A. C. Simmonett,  A. Sodt,  
 D. Stuck,  K. S. Thanthiriwatte,  V. Vanovschi,  Tao Wang,  A. Warshel,  
 C. F. Williams,  Q. Wu,  X. Xu,  W. Zhang

 Please cite Q-Chem as follows:
 Y. Shao et al., Mol. Phys. 113, 184-215 (2015)
 DOI: 10.1080/00268976.2014.952696

 Q-Chem 5.0.2 for Intel X86 EM64T Linux

 Parts of Q-Chem use Armadillo 5.200.1 (Boston Tea Smuggler).
 http://arma.sourceforge.net/

 Q-Chem begins on Thu Jan 25 17:19:51 2018  


Host: 0

     Scratch files written to /home/jcartus/scratch/Pyrazine-dimer.dir//
 Using version located at /usr/local/qchem/bin/qchem

 Parallel job on  1  processors

Total Memory Limit in MB = 2000
Mega-Array Size in MB = 192

Checking the input file for inconsistencies... 	...done.
Finally everything over in PARseQInput

--------------------------------------------------------------
User input:
--------------------------------------------------------------
$rem
SCF_PRINT                     1
BASIS                         6-311++g**
SCF_SAVE_MATRICES             1
SCF_CONVERGENCE               5
SCF_FINAL_PRINT               1
METHOD                        hf
JOBTYPE                       sp
$end

$molecule
0 1
C    -1.2471894    -1.1718212    -0.6961388
C    -1.2471894    -1.1718212    0.6961388
N    -0.258951    -1.7235771    1.4144796
C    0.7315327    -2.2652221    0.6967288
C    0.7315327    -2.2652221    -0.6967288
N    -0.258951    -1.7235771    -1.4144796
H    -2.0634363    -0.7223199    -1.2472797
H    -2.0634363    -0.7223199    1.2472797
H    1.5488004    -2.7128282    1.2475604
H    1.5488004    -2.7128282    -1.2475604
C    -0.3380031    2.0800608    1.1300452
C    0.8540254    1.3593471    1.1306308
N    1.4701787    0.9907598    0.0
C    0.8540254    1.3593471    -1.1306308
C    -0.3380031    2.0800608    -1.1300452
N    -0.9523059    2.4528836    0.0
H    -0.8103758    2.3643033    2.0618643
H    1.3208583    1.067061    2.0623986
H    1.3208583    1.067061    -2.0623986
H    -0.8103758    2.3643033    -2.0618643
$end


--------------------------------------------------------------
 I,J,IOp=           1           2           2  D=   6.4047456679787536E-015 Fix sym
 I,J,IOp=           3           6           2  D=   7.0111265255010409E-015 Fix sym
 I,J,IOp=           4           5           2  D=   4.5559743819108418E-015 Fix sym
 I,J,IOp=           7           8           2  D=   1.1588941673590271E-014 Fix sym
 I,J,IOp=           9          10           2  D=   9.1551335970444753E-015 Fix sym
 I,J,IOp=          11          15           2  D=   5.7399711449293298E-015 Fix sym
 I,J,IOp=          12          14           2  D=   6.8113788610171108E-015 Fix sym
 I, IOp=          13           2  D=   6.2172489379008766E-015 Fix sym
 I, IOp=          16           2  D=   4.4408920985006262E-015 Fix sym
 I,J,IOp=          17          20           2  D=   1.0970441734624025E-014 Fix sym
 I,J,IOp=          18          19           2  D=   1.1924436178121269E-014 Fix sym
 ----------------------------------------------------------------
             Standard Nuclear Orientation (Angstroms)
    I     Atom           X                Y                Z
 ----------------------------------------------------------------
    1      C       1.1513200590    -1.2660493115    -0.6961388000
    2      C       1.1513200590    -1.2660493115     0.6961388000
    3      N       1.7190894596    -0.2869233665     1.4144796000
    4      C       2.2767858490     0.6946121668     0.6967288000
    5      C       2.2767858490     0.6946121668    -0.6967288000
    6      N       1.7190894596    -0.2869233665    -1.4144796000
    7      H       0.6885913984    -2.0748710515    -1.2472797000
    8      H       0.6885913984    -2.0748710515     1.2472797000
    9      H       2.7376361774     1.5044854217     1.2475604000
   10      H       2.7376361774     1.5044854217    -1.2475604000
   11      C      -2.0853312869    -0.3040491374     1.1300452000
   12      C      -1.3453091646     0.8760896005     1.1306308000
   13      N      -0.9667409193     1.4861613753     0.0000000000
   14      C      -1.3453091646     0.8760896005    -1.1306308000
   15      C      -2.0853312869    -0.3040491374    -1.1300452000
   16      N      -2.4681043485    -0.9122017117    -0.0000000000
   17      H      -2.3772254381    -0.7717323326     2.0618643000
   18      H      -1.0454626564     1.3381027954     2.0623986000
   19      H      -1.0454626564     1.3381027954    -2.0623986000
   20      H      -2.3772254381    -0.7717323326    -2.0618643000
 ----------------------------------------------------------------
 Molecular Point Group                 Cs    NOp =  2
 Largest Abelian Subgroup              Cs    NOp =  2
 Nuclear Repulsion Energy =   654.1320249571 hartrees
 There are       42 alpha and       42 beta electrons
 Requested basis set is 6-311++G(d,p)
 There are 112 shells and 320 basis functions

 Total QAlloc Memory Limit   2000 MB
 Mega-Array Size       188 MB
 MEM_STATIC part       192 MB

finished with qalloc call
 Job number = 2, Threshold = 1.00E-08
Integral type ranges set in mkLRange.C for JobNum: 2  <1-21|1-21>
Symmetry turned off temporarily
 Using the largest function pair in Schwarz integrals
Total number of integrals generated =          743082
Symmetry turned back on
 A cutoff of  1.0D-08 yielded   5142 shell pairs
 There are     43488 function pairs (     46662 Cartesian)
 Job number = 11, Threshold = 1.00E-08
Integral type ranges set in mkLRange.C for JobNum: 11  <1-21|22-22>
Total number of integrals generated =          483020
 Smallest overlap matrix eigenvalue = 3.87E-06

 Q-Chem warning in module /usr/local/qchem/stvman/mkSTV.C, line 295:

 Overlap eigenvalue is smaller than square root of threshold

 Multipole matrices computed through 2nd order

 Scale SEOQF with 1.000000e-01/1.000000e-01/1.000000e-01

 Standard Electronic Orientation quadrupole field applied
 Nucleus-field energy     =     0.0000000051 hartrees
 ENuRep (before)= 654.1320249571
 ENucField = 0.0000000051
 ENuRep (after) = 654.1320249622
 Guess from superposition of atomic densities
 Warning:  Energy on first SCF cycle will be non-variational
 SAD guess density has 84.000000 electrons

 ==================================================
    GEN_SCFMAN: A general SCF calculation manager  
                                                   
    Authors:                                       
        -- Eric Jon Sundstrom 2008-2014            
        -- Paul Horn 2010-2015                     
        -- Yuezhi Mao 2012-                        
        -- Dmitri Zuev 2014                        
        -- Alec White 2015-                        
        -- David Stuck 2015                        
        -- Shaama M.S. 2015                        
        -- Shane Yost 2015-                         
        -- Joonho Lee 2016-                        
        -- David Small 2016-                       
        -- Daniel Levine 2016-                     
        -- Susi Lehtola 2017-                      
        -- Hugh Burton 2017-                       
 ==================================================
 Hartree-Fock
Finding J and K together
 Job number = 22, Threshold = 1.00E-08
Integral type ranges set in mkLRange.C for JobNum: 22  <1-21|1-21>
 MakeJK  time:  CPU      10.36 s  wall      10.50 s
 HF Exchange:              -72.10950797479822
 One-Electron:             -2005.05302796506180
 Total Coulomb:            893.01085496174198
 Nuclear repulsion:        654.13202496221493
 A restricted SCF calculation will be
 performed using DIIS
 SCF converges when DIIS error is below 1.0e-05
 ---------------------------------------
  Cycle       Energy         DIIS error
 ---------------------------------------
Finding J and K together
 Job number = 22, Threshold = 1.00E-08
Integral type ranges set in mkLRange.C for JobNum: 22  <1-21|1-21>
 MakeJK  time:  CPU      52.76 s  wall      53.02 s
 HF Exchange:              -70.46708088282406
 One-Electron:             -2008.25228329020842
 Total Coulomb:            899.25144650531342
 Nuclear repulsion:        654.13202496221493
    1    -530.0196560159      3.94e-02  
Finding J and K together
 Job number = 22, Threshold = 1.00E-08
Integral type ranges set in mkLRange.C for JobNum: 22  <1-21|1-21>
 MakeJK  time:  CPU      54.53 s  wall      54.59 s
 HF Exchange:              -70.67602668385672
 One-Electron:             -2010.62583363837871
 Total Coulomb:            901.70897693787276
 Nuclear repulsion:        654.13202496221493
    2    -525.3358927055      2.83e-03  
Finding J and K together
 Job number = 22, Threshold = 1.00E-08
Integral type ranges set in mkLRange.C for JobNum: 22  <1-21|1-21>
 MakeJK  time:  CPU      56.43 s  wall      56.54 s
 HF Exchange:              -70.71966301964385
 One-Electron:             -2010.01065411515924
 Total Coulomb:            901.12302989763361
 Nuclear repulsion:        654.13202496221493
    3    -525.4608584221      1.11e-03  
Finding J and K together
 Job number = 22, Threshold = 1.00E-08
Integral type ranges set in mkLRange.C for JobNum: 22  <1-21|1-21>
 MakeJK  time:  CPU      58.64 s  wall      58.73 s
 HF Exchange:              -70.70814283795265
 One-Electron:             -2009.99528445681881
 Total Coulomb:            901.09271454908924
 Nuclear repulsion:        654.13202496221493
    4    -525.4752622750      4.89e-04  
Finding J and K together
 Job number = 22, Threshold = 1.00E-08
Integral type ranges set in mkLRange.C for JobNum: 22  <1-21|1-21>
 MakeJK  time:  CPU      45.02 s  wall      45.21 s
 HF Exchange:              -70.71881137303474
 One-Electron:             -2010.12484389608221
 Total Coulomb:            901.23278679159603
 Nuclear repulsion:        654.13202496221493
    5    -525.4786877835      8.51e-05  
Finding J and K together
 Job number = 22, Threshold = 1.00E-08
Integral type ranges set in mkLRange.C for JobNum: 22  <1-21|1-21>
 MakeJK  time:  CPU      50.34 s  wall      50.89 s
 HF Exchange:              -70.71617425281975
 One-Electron:             -2010.08252935002406
 Total Coulomb:            901.18780534338180
 Nuclear repulsion:        654.13202496221493
    6    -525.4788435153      3.10e-05  
Finding J and K together
 Job number = 22, Threshold = 1.00E-08
Integral type ranges set in mkLRange.C for JobNum: 22  <1-21|1-21>
 MakeJK  time:  CPU      60.20 s  wall      60.40 s
 HF Exchange:              -70.71625801427649
 One-Electron:             -2010.08490330496920
 Total Coulomb:            901.19025794480160
 Nuclear repulsion:        654.13202496221493
    7    -525.4788732972      1.32e-05  
    8    -525.4788784122      5.56e-06  Convergence criterion met
 ---------------------------------------
 SCF time:   CPU 393.98s  wall 396.00s 
 Total energy in the final basis set =     -525.4788784122
 HF Exchange:              -70.71625801427649
 One-Electron:             -2010.08490330496920
 Total Coulomb:            901.19025794480160
 Nuclear repulsion:        654.13202496221493
Wall  1 = 397
Clock 1 = 394.69586181640625
 ==================================================
                  Done GEN_SCFMAN                  
 ==================================================

Symmetry turned off temporarily

 --------------------------------------------------------------
             Orbital Energies (a.u.) and Symmetries
 --------------------------------------------------------------

 Alpha MOs, Restricted
 -- Occupied --                  
-15.597 -15.595 -15.595 -15.595 -11.288 -11.288 -11.287 -11.286
  1 A'    1 A"    2 A'    3 A'    2 A"    4 A'    5 A'    6 A'                 
-11.286 -11.286 -11.286 -11.285  -1.312  -1.308  -1.222  -1.221
  3 A"    7 A'    4 A"    5 A"    8 A'    9 A'   10 A'    6 A"                 
 -1.056  -1.055  -0.906  -0.905  -0.890  -0.889  -0.730  -0.728
  7 A"   11 A'   12 A'   13 A'    8 A"    9 A"   14 A'   15 A'                 
 -0.706  -0.705  -0.678  -0.678  -0.612  -0.612  -0.595  -0.555
 10 A"   16 A'   17 A'   11 A"   12 A"   18 A'   19 A'   20 A'                 
 -0.552  -0.551  -0.503  -0.502  -0.440  -0.438  -0.416  -0.414
 13 A"   14 A"   21 A'   15 A"   16 A"   22 A'   23 A'   24 A'                 
 -0.358  -0.357
 25 A'   17 A"                                                                 
 -- Virtual --                   
  0.040   0.047   0.047   0.055   0.061   0.069   0.073   0.073
 26 A'   27 A'   18 A"   28 A'   19 A"   29 A'   30 A'   20 A"                 
  0.076   0.082   0.097   0.108   0.111   0.115   0.127   0.137
 31 A'   21 A"   22 A"   32 A'   33 A'   23 A"   34 A'   24 A"                 
  0.138   0.146   0.147   0.149   0.157   0.165   0.171   0.173
 35 A'   25 A"   36 A'   37 A'   26 A"   38 A'   27 A"   39 A'                 
  0.176   0.179   0.182   0.187   0.193   0.198   0.198   0.207
 40 A'   28 A"   29 A"   30 A"   41 A'   42 A'   43 A'   31 A"                 
  0.214   0.215   0.218   0.222   0.245   0.246   0.253   0.262
 32 A"   44 A'   33 A"   34 A"   45 A'   35 A"   36 A"   46 A'                 
  0.293   0.297   0.301   0.312   0.315   0.320   0.329   0.338
 47 A'   48 A'   37 A"   49 A'   50 A'   38 A"   51 A'   39 A"                 
  0.342   0.348   0.350   0.354   0.360   0.363   0.367   0.369
 52 A'   40 A"   53 A'   54 A'   55 A'   56 A'   41 A"   57 A'                 
  0.376   0.379   0.380   0.386   0.390   0.400   0.401   0.403
 42 A"   43 A"   58 A'   59 A'   44 A"   60 A'   45 A"   46 A"                 
  0.406   0.424   0.442   0.445   0.450   0.468   0.486   0.486
 47 A"   61 A'   48 A"   49 A"   62 A'   63 A'   64 A'   50 A"                 
  0.517   0.517   0.534   0.536   0.553   0.565   0.658   0.667
 65 A'   51 A"   66 A'   52 A"   53 A"   54 A"   67 A'   68 A'                 
  0.684   0.692   0.705   0.724   0.725   0.744   0.749   0.751
 55 A"   69 A'   70 A'   56 A"   71 A'   57 A"   72 A'   58 A"                 
  0.758   0.766   0.781   0.800   0.807   0.838   0.840   0.843
 59 A"   73 A'   60 A"   74 A'   61 A"   75 A'   76 A'   62 A"                 
  0.855   0.870   0.900   0.907   0.926   0.938   0.948   0.957
 63 A"   64 A"   65 A"   77 A'   78 A'   79 A'   80 A'   66 A"                 
  0.969   0.979   1.000   1.004   1.010   1.010   1.030   1.035
 67 A"   81 A'   82 A'   68 A"   83 A'   69 A"   84 A'   70 A"                 
  1.043   1.053   1.069   1.079   1.102   1.112   1.120   1.132
 71 A"   72 A"   73 A"   85 A'   86 A'   74 A"   87 A'   88 A'                 
  1.144   1.162   1.163   1.179   1.183   1.192   1.199   1.229
 89 A'   75 A"   90 A'   76 A"   91 A'   77 A"   92 A'   93 A'                 
  1.236   1.244   1.250   1.284   1.285   1.304   1.319   1.320
 78 A"   94 A'   79 A"   80 A"   95 A'   96 A'   97 A'   81 A"                 
  1.333   1.340   1.380   1.421   1.446   1.463   1.479   1.498
 82 A"   83 A"   98 A'   84 A"   99 A'  100 A'   85 A"   86 A"                 
  1.542   1.554   1.580   1.581   1.581   1.679   1.776   1.793
101 A'  102 A'  103 A'   87 A"  104 A'  105 A'   88 A"  106 A'                 
  1.802   1.805   1.837   1.846   1.852   1.864   1.865   1.875
107 A'   89 A"  108 A'   90 A"  109 A'  110 A'   91 A"  111 A'                 
  1.945   1.948   1.955   1.983   2.007   2.011   2.030   2.043
112 A'  113 A'   92 A"   93 A"  114 A'   94 A"  115 A'   95 A"                 
  2.054   2.056   2.066   2.073   2.075   2.081   2.101   2.139
 96 A"  116 A'   97 A"   98 A"  117 A'  118 A'  119 A'   99 A"                 
  2.193   2.216   2.221   2.222   2.288   2.293   2.326   2.330
100 A"  120 A'  101 A"  121 A'  122 A'  102 A"  103 A"  123 A'                 
  2.350   2.382   2.388   2.392   2.594   2.599   2.606   2.614
124 A'  104 A"  105 A"  106 A"  107 A"  108 A"  125 A'  109 A"                 
  2.627   2.639   2.687   2.701   2.714   2.724   2.765   2.768
126 A'  127 A'  128 A'  129 A'  110 A"  130 A'  111 A"  112 A"                 
  2.800   2.805   2.844   2.851   2.904   2.916   2.952   2.985
131 A'  113 A"  132 A'  114 A"  133 A'  115 A"  134 A'  135 A'                 
  3.002   3.003   3.005   3.020   3.031   3.038   3.059   3.059
136 A'  116 A"  117 A"  137 A'  118 A"  138 A'  139 A'  119 A"                 
  3.089   3.124   3.176   3.222   3.223   3.240   3.263   3.271
120 A"  121 A"  140 A'  141 A'  122 A"  142 A'  123 A"  143 A'                 
  3.279   3.298   3.304   3.334   3.336   3.347   3.374   3.379
124 A"  144 A'  125 A"  145 A'  126 A"  146 A'  127 A"  128 A"                 
  3.393   3.393   3.397   3.435   3.697   3.737   3.801   3.816
147 A'  129 A"  130 A"  131 A"  148 A'  132 A"  149 A'  150 A'                 
  3.821   3.836   4.023   4.032   4.074   4.076   4.099   4.107
151 A'  133 A"  152 A'  134 A"  135 A"  136 A"  153 A'  154 A'                 
  4.233   4.240   4.375   4.382   4.463   4.467   4.470   4.475
155 A'  137 A"  156 A'  157 A'  158 A'  138 A"  159 A'  139 A"                 
  4.531   4.546   4.774   4.786   5.075   5.086   5.342   5.342
140 A"  141 A"  160 A'  161 A'  162 A'  142 A"  163 A'  143 A"                 
  5.859   5.861  24.909  24.950  25.032  25.037  25.219  25.225
144 A"  145 A"  164 A'  165 A'  166 A'  146 A"  147 A"  148 A"                 
 25.227  25.228  36.939  36.944  37.117  37.123
167 A'  149 A"  168 A'  169 A'  170 A'  150 A"                                 

 Beta MOs, Restricted
 -- Occupied --                  
-15.597 -15.595 -15.595 -15.595 -11.288 -11.288 -11.287 -11.286
  1 A'    1 A"    2 A'    3 A'    2 A"    4 A'    5 A'    6 A'                 
-11.286 -11.286 -11.286 -11.285  -1.312  -1.308  -1.222  -1.221
  3 A"    7 A'    4 A"    5 A"    8 A'    9 A'   10 A'    6 A"                 
 -1.056  -1.055  -0.906  -0.905  -0.890  -0.889  -0.730  -0.728
  7 A"   11 A'   12 A'   13 A'    8 A"    9 A"   14 A'   15 A'                 
 -0.706  -0.705  -0.678  -0.678  -0.612  -0.612  -0.595  -0.555
 10 A"   16 A'   17 A'   11 A"   12 A"   18 A'   19 A'   20 A'                 
 -0.552  -0.551  -0.503  -0.502  -0.440  -0.438  -0.416  -0.414
 13 A"   14 A"   21 A'   15 A"   16 A"   22 A'   23 A'   24 A'                 
 -0.358  -0.357
 25 A'   17 A"                                                                 
 -- Virtual --                   
  0.040   0.047   0.047   0.055   0.061   0.069   0.073   0.073
 26 A'   27 A'   18 A"   28 A'   19 A"   29 A'   30 A'   20 A"                 
  0.076   0.082   0.097   0.108   0.111   0.115   0.127   0.137
 31 A'   21 A"   22 A"   32 A'   33 A'   23 A"   34 A'   24 A"                 
  0.138   0.146   0.147   0.149   0.157   0.165   0.171   0.173
 35 A'   25 A"   36 A'   37 A'   26 A"   38 A'   27 A"   39 A'                 
  0.176   0.179   0.182   0.187   0.193   0.198   0.198   0.207
 40 A'   28 A"   29 A"   30 A"   41 A'   42 A'   43 A'   31 A"                 
  0.214   0.215   0.218   0.222   0.245   0.246   0.253   0.262
 32 A"   44 A'   33 A"   34 A"   45 A'   35 A"   36 A"   46 A'                 
  0.293   0.297   0.301   0.312   0.315   0.320   0.329   0.338
 47 A'   48 A'   37 A"   49 A'   50 A'   38 A"   51 A'   39 A"                 
  0.342   0.348   0.350   0.354   0.360   0.363   0.367   0.369
 52 A'   40 A"   53 A'   54 A'   55 A'   56 A'   41 A"   57 A'                 
  0.376   0.379   0.380   0.386   0.390   0.400   0.401   0.403
 42 A"   43 A"   58 A'   59 A'   44 A"   60 A'   45 A"   46 A"                 
  0.406   0.424   0.442   0.445   0.450   0.468   0.486   0.486
 47 A"   61 A'   48 A"   49 A"   62 A'   63 A'   64 A'   50 A"                 
  0.517   0.517   0.534   0.536   0.553   0.565   0.658   0.667
 65 A'   51 A"   66 A'   52 A"   53 A"   54 A"   67 A'   68 A'                 
  0.684   0.692   0.705   0.724   0.725   0.744   0.749   0.751
 55 A"   69 A'   70 A'   56 A"   71 A'   57 A"   72 A'   58 A"                 
  0.758   0.766   0.781   0.800   0.807   0.838   0.840   0.843
 59 A"   73 A'   60 A"   74 A'   61 A"   75 A'   76 A'   62 A"                 
  0.855   0.870   0.900   0.907   0.926   0.938   0.948   0.957
 63 A"   64 A"   65 A"   77 A'   78 A'   79 A'   80 A'   66 A"                 
  0.969   0.979   1.000   1.004   1.010   1.010   1.030   1.035
 67 A"   81 A'   82 A'   68 A"   83 A'   69 A"   84 A'   70 A"                 
  1.043   1.053   1.069   1.079   1.102   1.112   1.120   1.132
 71 A"   72 A"   73 A"   85 A'   86 A'   74 A"   87 A'   88 A'                 
  1.144   1.162   1.163   1.179   1.183   1.192   1.199   1.229
 89 A'   75 A"   90 A'   76 A"   91 A'   77 A"   92 A'   93 A'                 
  1.236   1.244   1.250   1.284   1.285   1.304   1.319   1.320
 78 A"   94 A'   79 A"   80 A"   95 A'   96 A'   97 A'   81 A"                 
  1.333   1.340   1.380   1.421   1.446   1.463   1.479   1.498
 82 A"   83 A"   98 A'   84 A"   99 A'  100 A'   85 A"   86 A"                 
  1.542   1.554   1.580   1.581   1.581   1.679   1.776   1.793
101 A'  102 A'  103 A'   87 A"  104 A'  105 A'   88 A"  106 A'                 
  1.802   1.805   1.837   1.846   1.852   1.864   1.865   1.875
107 A'   89 A"  108 A'   90 A"  109 A'  110 A'   91 A"  111 A'                 
  1.945   1.948   1.955   1.983   2.007   2.011   2.030   2.043
112 A'  113 A'   92 A"   93 A"  114 A'   94 A"  115 A'   95 A"                 
  2.054   2.056   2.066   2.073   2.075   2.081   2.101   2.139
 96 A"  116 A'   97 A"   98 A"  117 A'  118 A'  119 A'   99 A"                 
  2.193   2.216   2.221   2.222   2.288   2.293   2.326   2.330
100 A"  120 A'  101 A"  121 A'  122 A'  102 A"  103 A"  123 A'                 
  2.350   2.382   2.388   2.392   2.594   2.599   2.606   2.614
124 A'  104 A"  105 A"  106 A"  107 A"  108 A"  125 A'  109 A"                 
  2.627   2.639   2.687   2.701   2.714   2.724   2.765   2.768
126 A'  127 A'  128 A'  129 A'  110 A"  130 A'  111 A"  112 A"                 
  2.800   2.805   2.844   2.851   2.904   2.916   2.952   2.985
131 A'  113 A"  132 A'  114 A"  133 A'  115 A"  134 A'  135 A'                 
  3.002   3.003   3.005   3.020   3.031   3.038   3.059   3.059
136 A'  116 A"  117 A"  137 A'  118 A"  138 A'  139 A'  119 A"                 
  3.089   3.124   3.176   3.222   3.223   3.240   3.263   3.271
120 A"  121 A"  140 A'  141 A'  122 A"  142 A'  123 A"  143 A'                 
  3.279   3.298   3.304   3.334   3.336   3.347   3.374   3.379
124 A"  144 A'  125 A"  145 A'  126 A"  146 A'  127 A"  128 A"                 
  3.393   3.393   3.397   3.435   3.697   3.737   3.801   3.816
147 A'  129 A"  130 A"  131 A"  148 A'  132 A"  149 A'  150 A'                 
  3.821   3.836   4.023   4.032   4.074   4.076   4.099   4.107
151 A'  133 A"  152 A'  134 A"  135 A"  136 A"  153 A'  154 A'                 
  4.233   4.240   4.375   4.382   4.463   4.467   4.470   4.475
155 A'  137 A"  156 A'  157 A'  158 A'  138 A"  159 A'  139 A"                 
  4.531   4.546   4.774   4.786   5.075   5.086   5.342   5.342
140 A"  141 A"  160 A'  161 A'  162 A'  142 A"  163 A'  143 A"                 
  5.859   5.861  24.909  24.950  25.032  25.037  25.219  25.225
144 A"  145 A"  164 A'  165 A'  166 A'  146 A"  147 A"  148 A"                 
 25.227  25.228  36.939  36.944  37.117  37.123
167 A'  149 A"  168 A'  169 A'  170 A'  150 A"                                 
 --------------------------------------------------------------

          Ground-State Mulliken Net Atomic Charges

     Atom                 Charge (a.u.)
  ----------------------------------------
      1 C                    -0.276830
      2 C                    -0.276830
      3 N                     0.002452
      4 C                    -0.124094
      5 C                    -0.124094
      6 N                     0.002452
      7 H                     0.203851
      8 H                     0.203851
      9 H                     0.209631
     10 H                     0.209631
     11 C                    -0.177440
     12 C                    -0.180915
     13 N                    -0.043503
     14 C                    -0.180915
     15 C                    -0.177440
     16 N                    -0.091574
     17 H                     0.207707
     18 H                     0.203177
     19 H                     0.203177
     20 H                     0.207707
  ----------------------------------------
  Sum of atomic charges =    -0.000000

 -----------------------------------------------------------------
                    Cartesian Multipole Moments
 -----------------------------------------------------------------
    Charge (ESU x 10^10)
                -0.0000
    Dipole Moment (Debye)
         X       0.0945      Y       0.2287      Z      -0.0000
       Tot       0.2474
    Quadrupole Moments (Debye-Ang)
        XX     -73.9959     XY       2.4096     YY     -69.8813
        XZ      -0.0000     YZ       0.0000     ZZ     -68.6838
    Octopole Moments (Debye-Ang^2)
       XXX      21.1615    XXY      23.2213    XYY      16.5313
       YYY      -9.5748    XXZ      -0.0000    XYZ       0.0000
       YYZ      -0.0000    XZZ     -27.2356    YZZ       4.9803
       ZZZ      -0.0000
    Hexadecapole Moments (Debye-Ang^3)
      XXXX   -1507.9267   XXXY      22.9029   XXYY    -319.8991
      XYYY       8.0931   YYYY    -454.3596   XXXZ      -0.0000
      XXYZ       0.0000   XYYZ       0.0000   YYYZ       0.0000
      XXZZ    -321.3673   XYZZ      20.4772   YYZZ    -136.4784
      XZZZ      -0.0000   YZZZ       0.0000   ZZZZ    -535.0762
 -----------------------------------------------------------------
 Mayer SCF Bond Order, atomic valence on the diagonal:

            1           2           3           4           5           6
    1   3.9992811   1.1832888  -0.1753061   0.0230284   0.1838485   1.7830620
    2   1.1832888   3.9992811   1.7830620   0.1838485   0.0230284  -0.1753061
    3  -0.1753061   1.7830620   2.8971860   1.3167999  -0.0130828   0.0748774
    4   0.0230284   0.1838485   1.3167999   3.9443539   1.4477350  -0.0130828
    5   0.1838485   0.0230284  -0.0130828   1.4477350   3.9443539   1.3167999
    6   1.7830620  -0.1753061   0.0748774  -0.0130828   1.3167999   2.8971860
    7   0.9462972  -0.0150935   0.0068793  -0.0076540   0.0285719  -0.0420893
    8  -0.0150935   0.9462972  -0.0420893   0.0285719  -0.0076540   0.0068793
    9  -0.0098801   0.0387142  -0.0435709   0.9000858   0.0197264   0.0076368
   10   0.0387142  -0.0098801   0.0076368   0.0197264   0.9000858  -0.0435709
   11   0.0533045   0.0082796  -0.1641312  -0.0077776   0.0058573   0.0542106
   12  -0.1086343   0.0867777   0.1811118   0.0521629  -0.0032672  -0.0760497
   13   0.0123607   0.0123607  -0.0142892  -0.0075912  -0.0075912  -0.0142892
   14   0.0867777  -0.1086343  -0.0760497  -0.0032672   0.0521629   0.1811118
   15   0.0082796   0.0533045   0.0542106   0.0058573  -0.0077776  -0.1641312
   16  -0.0068182  -0.0068182  -0.0052251   0.0020386   0.0020386  -0.0052251
   17   0.0036368  -0.0068769  -0.0042235  -0.0000184  -0.0001665   0.0001091
   18   0.0047341  -0.0054424   0.0120058   0.0073337  -0.0032769  -0.0015392
   19  -0.0054424   0.0047341  -0.0015392  -0.0032769   0.0073337   0.0120058
   20  -0.0068769   0.0036368   0.0001091  -0.0001665  -0.0000184  -0.0042235
            7           8           9          10          11          12
    1   0.9462972  -0.0150935  -0.0098801   0.0387142   0.0533045  -0.1086343
    2  -0.0150935   0.9462972   0.0387142  -0.0098801   0.0082796   0.0867777
    3   0.0068793  -0.0420893  -0.0435709   0.0076368  -0.1641312   0.1811118
    4  -0.0076540   0.0285719   0.9000858   0.0197264  -0.0077776   0.0521629
    5   0.0285719  -0.0076540   0.0197264   0.9000858   0.0058573  -0.0032672
    6  -0.0420893   0.0068793   0.0076368  -0.0435709   0.0542106  -0.0760497
    7   0.9330849   0.0050231   0.0000298   0.0010798   0.0017515  -0.0024069
    8   0.0050231   0.9330849   0.0010798   0.0000298   0.0031695   0.0022218
    9   0.0000298   0.0010798   0.9111107   0.0060363   0.0020082  -0.0036671
   10   0.0010798   0.0000298   0.0060363   0.9111107  -0.0032399   0.0005780
   11   0.0017515   0.0031695   0.0020082  -0.0032399   3.8575162   1.3355572
   12  -0.0024069   0.0022218  -0.0036671   0.0005780   1.3355572   4.1685997
   13   0.0008504   0.0008504  -0.0053183  -0.0053183  -0.0546553   1.5039344
   14   0.0022218  -0.0024069   0.0005780  -0.0036671   0.0637016   0.2024647
   15   0.0031695   0.0017515  -0.0032399   0.0020082   0.1823385   0.0637016
   16   0.0038976   0.0038976  -0.0001009  -0.0001009   1.4080032  -0.0097624
   17   0.0001419   0.0000371   0.0000749   0.0000049   0.9296265   0.0059962
   18   0.0002547   0.0001230   0.0007067   0.0002058   0.0287408   0.8977391
   19   0.0001230   0.0002547   0.0002058   0.0007067  -0.0157336   0.0459628
   20   0.0000371   0.0001419   0.0000049   0.0000749   0.0265047  -0.0058207
           13          14          15          16          17          18
    1   0.0123607   0.0867777   0.0082796  -0.0068182   0.0036368   0.0047341
    2   0.0123607  -0.1086343   0.0533045  -0.0068182  -0.0068769  -0.0054424
    3  -0.0142892  -0.0760497   0.0542106  -0.0052251  -0.0042235   0.0120058
    4  -0.0075912  -0.0032672   0.0058573   0.0020386  -0.0000184   0.0073337
    5  -0.0075912   0.0521629  -0.0077776   0.0020386  -0.0001665  -0.0032769
    6  -0.0142892   0.1811118  -0.1641312  -0.0052251   0.0001091  -0.0015392
    7   0.0008504   0.0022218   0.0031695   0.0038976   0.0001419   0.0002547
    8   0.0008504  -0.0024069   0.0017515   0.0038976   0.0000371   0.0001230
    9  -0.0053183   0.0005780  -0.0032399  -0.0001009   0.0000749   0.0007067
   10  -0.0053183  -0.0036671   0.0020082  -0.0001009   0.0000049   0.0002058
   11  -0.0546553   0.0637016   0.1823385   1.4080032   0.9296265   0.0287408
   12   1.5039344   0.2024647   0.0637016  -0.0097624   0.0059962   0.8977391
   13   2.8635927   1.5039344  -0.0546553   0.0682491   0.0074543  -0.0450741
   14   1.5039344   4.1685997   1.3355572  -0.0097624  -0.0058207   0.0459628
   15  -0.0546553   1.3355572   3.8575162   1.4080032   0.0265047  -0.0157336
   16   0.0682491  -0.0097624   1.4080032   2.7688945  -0.0502383   0.0085281
   17   0.0074543  -0.0058207   0.0265047  -0.0502383   0.9133857   0.0062907
   18  -0.0450741   0.0459628  -0.0157336   0.0085281   0.0062907   0.9430355
   19  -0.0450741   0.8977391   0.0287408   0.0085281  -0.0000430   0.0015194
   20   0.0074543   0.0059962   0.9296265  -0.0502383   0.0008957  -0.0000430
           19          20
    1  -0.0054424  -0.0068769
    2   0.0047341   0.0036368
    3  -0.0015392   0.0001091
    4  -0.0032769  -0.0001665
    5   0.0073337  -0.0000184
    6   0.0120058  -0.0042235
    7   0.0001230   0.0000371
    8   0.0002547   0.0001419
    9   0.0002058   0.0000049
   10   0.0007067   0.0000749
   11  -0.0157336   0.0265047
   12   0.0459628  -0.0058207
   13  -0.0450741   0.0074543
   14   0.8977391   0.0059962
   15   0.0287408   0.9296265
   16   0.0085281  -0.0502383
   17  -0.0000430   0.0008957
   18   0.0015194  -0.0000430
   19   0.9430355   0.0062907
   20   0.0062907   0.9133857


 JobOver = TRUE
Archival summary:
1\1\qciep03\SP\HF\BasisUnspecified\488\jcartus\ThuJan2517:26:312018ThuJan2517:26:312018\0\\#,HF,BasisUnspecified,\\0,1\N\C,1,1.33934\H,2,1.08238,1,116.999\C,1,1.33934,2,115.166,3,-179.336,0\H,4,1.08238,1,116.999,2,179.336,0\C,2,1.39297,1,122.392,3,179.655,0\H,6,1.08269,2,120.586,1,179.9,0\N,6,1.33917,2,122.476,1,-0.10994,0\C,8,1.33917,6,115.096,2,-0.11392,0\H,9,1.08269,8,116.938,6,-179.876,0\N,3,3.27158,2,81.4649,1,82.6712,0\C,11,1.33776,3,95.3991,2,-88.8806,0\H,12,1.08245,11,116.963,3,-79.9198,0\C,11,1.34055,3,96.3742,2,27.2278,0\H,14,1.08262,11,116.995,3,80.8186,0\C,14,1.39228,11,122.402,3,-99.5044,0\H,16,1.08262,14,120.603,11,-179.666,0\N,16,1.34055,14,122.402,11,0,0\C,18,1.33776,16,115.148,14,0.469493,0\H,19,1.08245,18,116.963,16,179.566,0\\HF=-525.478878\\@

 Total job time:  400.46s(wall), 398.43s(cpu) 
 Thu Jan 25 17:26:31 2018

        *************************************************************
        *                                                           *
        *  Thank you very much for using Q-Chem.  Have a nice day.  *
        *                                                           *
        *************************************************************


*** MISSION COMPLETED -- STARFLEET OUT ***

0 sent ACK to 0 
now end server 0 ... 
