Process 0 of 1 is on qciep03 - thread support 0
initial socket setup ...start
initial socket setup ...done 
now start server 0 ... 
qciep03.tugraz.at 127.0.1
Q-Chem Developer Version! Running on 127.0.1.*
                  Welcome to Q-Chem
     A Quantum Leap Into The Future Of Chemistry


 Q-Chem 5.0, Q-Chem, Inc., Pleasanton, CA (2017)

 Yihan Shao,  Zhengting Gan,  E. Epifanovsky,  A. T. B. Gilbert,  M. Wormit,  
 J. Kussmann,  A. W. Lange,  A. Behn,  Jia Deng,  Xintian Feng,  D. Ghosh,  
 M. Goldey,  P. R. Horn,  L. D. Jacobson,  I. Kaliman,  T. Kus,  A. Landau,  
 Jie Liu,  E. I. Proynov,  R. M. Richard,  R. P. Steele,  E. J. Sundstrom,  
 H. L. Woodcock III,  P. M. Zimmerman,  D. Zuev,  B. Albrecht,  E. Alguire,  
 S. A. Baeppler,  D. Barton,  Z. Benda,  Y. A. Bernard,  E. J. Berquist,  
 K. B. Bravaya,  H. Burton,  D. Casanova,  Chun-Min Chang,  Yunqing Chen,  
 A. Chien,  K. D. Closser,  M. P. Coons,  S. Dasgupta,  A. L. Dempwolff,  
 M. Diedenhofen,  Hainam Do,  R. G. Edgar,  Po-Tung Fang,  S. Fatehi,  
 Qingguo Feng,  J. Fosso-Tande,  Qinghui Ge,  A. Ghysels,  G. Gidofalvi,  
 J. Gomes,  J. Gonthier,  A. Gunina,  M. W. D. Hanson-Heine,  
 P. H. P. Harbach,  A. W. Hauser,  J. E. Herr,  E. G. Hohenstein,  
 Z. C. Holden,  Kerwin Hui,  T.-C. Jagau,  Hyunjun Ji,  B. Kaduk,  
 K. Khistyaev,  Jaehoon Kim,  P. Klunzinger,  K. Koh,  D. Kosenkov,  
 L. Koulias,  T. Kowalczyk,  C. M. Krauter,  A. Kunitsa,  Ka Un Lao,  
 A. Laurent,  K. V. Lawler,  Joonho Lee,  D. Lefrancois,  S. Lehtola,  
 D. S. Levine,  Yi-Pei Li,  You-Sheng Lin,  Fenglai Liu,  E. Livshits,  
 A. Luenser,  P. Manohar,  E. Mansoor,  S. F. Manzer,  Shan-Ping Mao,  
 Yuezhi Mao,  N. Mardirossian,  A. V. Marenich,  T. Markovich,  
 L. A. Martinez-Martinez,  S. A. Maurer,  N. J. Mayhall,  S. C. McKenzie,  
 J.-M. Mewes,  A. F. Morrison,  J. W. Mullinax,  K. Nanda,  
 T. S. Nguyen-Beck,  R. Olivares-Amaya,  J. A. Parkhill,  T. M. Perrine,  
 F. Plasser,  S. Prager,  A. Prociuk,  E. Ramos,  D. R. Rehn,  F. Rob,  
 M. Schneider,  N. Sergueev,  S. M. Sharada,  S. Sharma,  D. W. Small,  
 T. Stauch,  T. Stein,  Yu-Chuan Su,  A. J. W. Thom,  A. Tkatchenko,  
 T. Tsuchimochi,  L. Vogt,  O. Vydrov,  M. A. Watson,  J. Wenzel,  
 M. de Wergifosse,  T. A. Wesolowski,  A. White,  J. Witte,  A. Yamada,  
 Jun Yang,  K. Yao,  S. Yeganeh,  S. R. Yost,  Zhi-Qiang You,  A. Zech,  
 Igor Ying Zhang,  Xing Zhang,  Yan Zhao,  Ying Zhu,  B. R. Brooks,  
 G. K. L. Chan,  C. J. Cramer,  M. S. Gordon,  W. J. Hehre,  A. Klamt,  
 M. W. Schmidt,  C. D. Sherrill,  D. G. Truhlar,  A. Aspuru-Guzik,  R. Baer,  
 A. T. Bell,  N. A. Besley,  Jeng-Da Chai,  R. A. DiStasio Jr.,  A. Dreuw,  
 B. D. Dunietz,  T. R. Furlani,  Chao-Ping Hsu,  Yousung Jung,  Jing Kong,  
 D. S. Lambrecht,  WanZhen Liang,  C. Ochsenfeld,  V. A. Rassolov,  
 L. V. Slipchenko,  J. E. Subotnik,  T. Van Voorhis,  J. M. Herbert,  
 A. I. Krylov,  P. M. W. Gill,  M. Head-Gordon

 Contributors to earlier versions of Q-Chem not listed above: 
 R. D. Adamson,  B. Austin,  J. Baker,  G. J. O. Beran,  K. Brandhorst,  
 S. T. Brown,  E. F. C. Byrd,  A. K. Chakraborty,  C.-L. Cheng,  
 Siu Hung Chien,  D. M. Chipman,  D. L. Crittenden,  H. Dachsel,  
 R. J. Doerksen,  A. D. Dutoi,  L. Fusti-Molnar,  W. A. Goddard III,  
 A. Golubeva-Zadorozhnaya,  S. R. Gwaltney,  G. Hawkins,  A. Heyden,  
 S. Hirata,  G. Kedziora,  F. J. Keil,  C. Kelley,  Jihan Kim,  R. A. King,  
 R. Z. Khaliullin,  P. P. Korambath,  W. Kurlancheek,  A. M. Lee,  M. S. Lee,  
 S. V. Levchenko,  Ching Yeh Lin,  D. Liotard,  R. C. Lochan,  I. Lotan,  
 P. E. Maslen,  N. Nair,  D. P. O'Neill,  D. Neuhauser,  E. Neuscamman,  
 C. M. Oana,  R. Olson,  B. Peters,  R. Peverati,  P. A. Pieniazek,  
 Y. M. Rhee,  J. Ritchie,  M. A. Rohrdanz,  E. Rosta,  N. J. Russ,  
 H. F. Schaefer III,  N. E. Schultz,  N. Shenvi,  A. C. Simmonett,  A. Sodt,  
 D. Stuck,  K. S. Thanthiriwatte,  V. Vanovschi,  Tao Wang,  A. Warshel,  
 C. F. Williams,  Q. Wu,  X. Xu,  W. Zhang

 Please cite Q-Chem as follows:
 Y. Shao et al., Mol. Phys. 113, 184-215 (2015)
 DOI: 10.1080/00268976.2014.952696

 Q-Chem 5.0.2 for Intel X86 EM64T Linux

 Parts of Q-Chem use Armadillo 5.200.1 (Boston Tea Smuggler).
 http://arma.sourceforge.net/

 Q-Chem begins on Thu Feb  1 12:17:44 2018  


Host: 0

     Scratch files written to /home/jcartus/scratch/20_benBr-acetone.dir//
 Using version located at /usr/local/qchem/bin/qchem

 Parallel job on  1  processors

Total Memory Limit in MB = 2000
Mega-Array Size in MB = 192

Checking the input file for inconsistencies... 	...done.
Finally everything over in PARseQInput

--------------------------------------------------------------
User input:
--------------------------------------------------------------
$rem
SCF_PRINT                     1
BASIS                         6-311++g**
SCF_SAVE_MATRICES             1
SCF_CONVERGENCE               5
SCF_FINAL_PRINT               1
METHOD                        hf
JOBTYPE                       sp
$end

$molecule
0 1
C    1.2171198    8.6352e-05    -0.737292531
C    2.232687859    0.000174717    0.216499979
C    1.925210087    0.000130109    1.575499453
C    0.592512132    0.000178132    1.981957864
C    -0.433049194    7.025e-05    1.038766795
H    1.448302007    -2.0318e-05    -1.79278536
H    3.264633432    0.000102432    -0.107052277
H    2.717093974    -2.3151e-05    2.311239059
H    0.345707498    0.000109507    3.034933333
H    -1.468501456    -9.3207e-05    1.34757497
C    -0.111081725    -0.000108736    -0.316810844
Br    -1.493755973    -0.001747763    -1.606462802
O    -3.785037609    0.000866982    -3.641619578
C    -4.942504639    0.030472744    -3.262526217
C    -5.268278522    0.030763181    -1.784860352
C    -6.074813789    0.067570401    -4.266102134
H    -5.949425709    0.944115224    -4.899332013
H    -5.998004094    -0.807301293    -4.909325767
H    -7.056301133    0.092128453    -3.803511947
H    -6.334373655    0.058880289    -1.583055978
H    -4.834292873    -0.858956293    -1.331613097
H    -4.786131398    0.889881839    -1.321375004
$end


--------------------------------------------------------------
 ----------------------------------------------------------------
             Standard Nuclear Orientation (Angstroms)
    I     Atom           X                Y                Z
 ----------------------------------------------------------------
    1      C       2.6507377969    -1.1536063001    -0.0090118453
    2      C       4.0224682426    -0.9098465769    -0.0149636655
    3      C       4.5076777305     0.3962860148    -0.0115639240
    4      C       3.6137567156     1.4649825075    -0.0023277355
    5      C       2.2394513821     1.2355621352     0.0037204615
    6      H       2.2675047921    -2.1638720108    -0.0114601088
    7      H       4.7098364212    -1.7447549262    -0.0220888645
    8      H       5.5729200416     0.5796766025    -0.0159903141
    9      H       3.9825320228     2.4816767660     0.0003976703
   10      H       1.5410900114     2.0600383195     0.0110906644
   11      C       1.7682473222    -0.0756242979     0.0004508848
   12      Br     -0.0944539576    -0.4000378163     0.0100813952
   13      O      -3.1255038920    -0.8522133578     0.0208075330
   14      C      -3.8877846102     0.0979357594    -0.0007090838
   15      C      -3.3530466467     1.5134461028     0.0025915072
   16      C      -5.3846739520    -0.1235519331    -0.0312110365
   17      H      -5.6301737444    -0.7184750902    -0.9091799233
   18      H      -5.6674455018    -0.7080912234     0.8425114143
   19      H      -5.9539252217     0.8003283092    -0.0487744990
   20      H      -4.1356911601     2.2651834310    -0.0182162955
   21      H      -2.7374005559     1.6518913328     0.8898288876
   22      H      -2.7003313419     1.6419284510    -0.8592811068
 ----------------------------------------------------------------
 Molecular Point Group                 C1    NOp =  1
 Largest Abelian Subgroup              C1    NOp =  1
 Nuclear Repulsion Energy =   801.3847486080 hartrees
 There are       54 alpha and       54 beta electrons
 Requested basis set is 6-311++G(d,p)
 There are 134 shells and 345 basis functions

 Total QAlloc Memory Limit   2000 MB
 Mega-Array Size       188 MB
 MEM_STATIC part       192 MB

finished with qalloc call
 Job number = 2, Threshold = 1.00E-08
Integral type ranges set in mkLRange.C for JobNum: 2  <1-21|1-21>
Symmetry turned off temporarily
 Using the largest function pair in Schwarz integrals
Total number of integrals generated =          610970
Symmetry turned back on
 A cutoff of  1.0D-08 yielded   5975 shell pairs
 There are     40192 function pairs (     43022 Cartesian)
 Job number = 11, Threshold = 1.00E-08
Integral type ranges set in mkLRange.C for JobNum: 11  <1-21|22-22>
Total number of integrals generated =          945230
 Smallest overlap matrix eigenvalue = 9.44E-07

 Q-Chem warning in module /usr/local/qchem/stvman/mkSTV.C, line 295:

 Overlap eigenvalue is smaller than square root of threshold

 Linear dependence detected in AO basis
 Number of orthogonalized atomic orbitals = 344
 Maximum deviation from orthogonality = 3.446E-11
 Multipole matrices computed through 2nd order

 Scale SEOQF with 1.000000e-02/1.000000e-01/1.000000e-01

 Standard Electronic Orientation quadrupole field applied
 Nucleus-field energy     =     0.0000000098 hartrees
 ENuRep (before)= 801.3847486080
 ENucField = 0.0000000098
 ENuRep (after) = 801.3847486178
 Guess from superposition of atomic densities
 Warning:  Energy on first SCF cycle will be non-variational
 SAD guess density has 108.000000 electrons

 ==================================================
    GEN_SCFMAN: A general SCF calculation manager  
                                                   
    Authors:                                       
        -- Eric Jon Sundstrom 2008-2014            
        -- Paul Horn 2010-2015                     
        -- Yuezhi Mao 2012-                        
        -- Dmitri Zuev 2014                        
        -- Alec White 2015-                        
        -- David Stuck 2015                        
        -- Shaama M.S. 2015                        
        -- Shane Yost 2015-                         
        -- Joonho Lee 2016-                        
        -- David Small 2016-                       
        -- Daniel Levine 2016-                     
        -- Susi Lehtola 2017-                      
        -- Hugh Burton 2017-                       
 ==================================================
 Hartree-Fock
Finding J and K together
 Job number = 22, Threshold = 1.00E-08
Integral type ranges set in mkLRange.C for JobNum: 22  <1-21|1-21>
 MakeJK  time:  CPU      25.65 s  wall      26.13 s
 HF Exchange:              -149.62296344928049
 One-Electron:             -5741.64500657767621
 Total Coulomb:            2091.57780847470895
 Nuclear repulsion:        801.38474861784573
 A restricted SCF calculation will be
 performed using DIIS
 SCF converges when DIIS error is below 1.0e-05
 ---------------------------------------
  Cycle       Energy         DIIS error
 ---------------------------------------
Finding J and K together
 Job number = 22, Threshold = 1.00E-08
Integral type ranges set in mkLRange.C for JobNum: 22  <1-21|1-21>
 MakeJK  time:  CPU     109.84 s  wall     113.24 s
 HF Exchange:              -148.38979591050489
 One-Electron:             -5749.70274273298401
 Total Coulomb:            2102.34159661041031
 Nuclear repulsion:        801.38474861784573
    1   -2998.3054129344      3.47e-02  
Finding J and K together
 Job number = 22, Threshold = 1.00E-08
Integral type ranges set in mkLRange.C for JobNum: 22  <1-21|1-21>
 MakeJK  time:  CPU     110.02 s  wall     121.96 s
 HF Exchange:              -148.33594173933821
 One-Electron:             -5749.25893990257282
 Total Coulomb:            2101.71985670563799
 Nuclear repulsion:        801.38474861784573
    2   -2994.3661934152      3.23e-03  
Finding J and K together
 Job number = 22, Threshold = 1.00E-08
Integral type ranges set in mkLRange.C for JobNum: 22  <1-21|1-21>
 MakeJK  time:  CPU     111.45 s  wall     114.46 s
 HF Exchange:              -148.48873509734844
 One-Electron:             -5749.63160408464410
 Total Coulomb:            2102.18906462514997
 Nuclear repulsion:        801.38474861784573
    3   -2994.4902763184      2.27e-03  
Finding J and K together
 Job number = 22, Threshold = 1.00E-08
Integral type ranges set in mkLRange.C for JobNum: 22  <1-21|1-21>
 MakeJK  time:  CPU      83.40 s  wall      83.57 s
 HF Exchange:              -148.49364850047550
 One-Electron:             -5749.55607129087366
 Total Coulomb:            2102.11390487979952
 Nuclear repulsion:        801.38474861784573
    4   -2994.5465259390      4.64e-04  
Finding J and K together
 Job number = 22, Threshold = 1.00E-08
Integral type ranges set in mkLRange.C for JobNum: 22  <1-21|1-21>
 MakeJK  time:  CPU      72.18 s  wall      72.25 s
 HF Exchange:              -148.50030408631568
 One-Electron:             -5749.58608303745768
 Total Coulomb:            2102.15029760819016
 Nuclear repulsion:        801.38474861784573
    5   -2994.5510662937      1.04e-04  
Finding J and K together
 Job number = 22, Threshold = 1.00E-08
Integral type ranges set in mkLRange.C for JobNum: 22  <1-21|1-21>
 MakeJK  time:  CPU     103.86 s  wall     103.95 s
 HF Exchange:              -148.49982861275521
 One-Electron:             -5749.54633314951479
 Total Coulomb:            2102.11001820105685
 Nuclear repulsion:        801.38474861784573
    6   -2994.5513408977      3.78e-05  
Finding J and K together
 Job number = 22, Threshold = 1.00E-08
Integral type ranges set in mkLRange.C for JobNum: 22  <1-21|1-21>
 MakeJK  time:  CPU      97.10 s  wall      97.18 s
 HF Exchange:              -148.50082799603402
 One-Electron:             -5749.56154385254376
 Total Coulomb:            2102.12621903715217
 Nuclear repulsion:        801.38474861784573
    7   -2994.5513949434      1.65e-05  
    8   -2994.5514041936      6.59e-06  Convergence criterion met
 ---------------------------------------
 SCF time:   CPU 721.23s  wall 741.00s 
 Total energy in the final basis set =    -2994.5514041936
 HF Exchange:              -148.50082799603402
 One-Electron:             -5749.56154385254376
 Total Coulomb:            2102.12621903715217
 Nuclear repulsion:        801.38474861784573
Wall  1 = 741
Clock 1 = 721.97717285156250
 ==================================================
                  Done GEN_SCFMAN                  
 ==================================================

Symmetry turned off temporarily

 --------------------------------------------------------------

                    Orbital Energies (a.u.)
 --------------------------------------------------------------

 Alpha MOs
 -- Occupied --
******* -65.144 -58.504 -58.503 -58.503 -20.543 -11.339 -11.290
-11.247 -11.246 -11.245 -11.245 -11.242 -11.235 -11.234  -9.824
 -7.438  -7.430  -7.429  -3.178  -3.174  -3.174  -3.163  -3.163
 -1.386  -1.169  -1.064  -1.040  -1.027  -0.973  -0.965  -0.839
 -0.811  -0.744  -0.705  -0.645  -0.640  -0.638  -0.637  -0.621
 -0.599  -0.573  -0.567  -0.563  -0.536  -0.524  -0.509  -0.484
 -0.481  -0.427  -0.414  -0.401  -0.345  -0.324
 -- Virtual --
  0.036   0.042   0.049   0.055   0.061   0.070   0.072   0.078
  0.087   0.093   0.101   0.101   0.106   0.119   0.121   0.127
  0.127   0.141   0.142   0.152   0.159   0.163   0.166   0.168
  0.180   0.181   0.182   0.183   0.184   0.191   0.194   0.203
  0.206   0.209   0.211   0.213   0.221   0.225   0.227   0.231
  0.234   0.237   0.246   0.247   0.258   0.265   0.277   0.287
  0.295   0.307   0.311   0.314   0.320   0.321   0.334   0.341
  0.348   0.356   0.372   0.386   0.396   0.399   0.405   0.413
  0.416   0.426   0.427   0.432   0.449   0.473   0.491   0.496
  0.504   0.507   0.517   0.548   0.555   0.579   0.607   0.614
  0.621   0.636   0.641   0.658   0.708   0.715   0.719   0.737
  0.738   0.740   0.742   0.743   0.753   0.770   0.772   0.776
  0.788   0.793   0.802   0.810   0.833   0.843   0.846   0.869
  0.876   0.877   0.891   0.898   0.905   0.920   0.930   0.939
  0.942   0.944   0.948   0.956   0.972   0.996   1.017   1.020
  1.054   1.062   1.074   1.083   1.109   1.122   1.128   1.139
  1.140   1.156   1.163   1.195   1.210   1.221   1.240   1.314
  1.316   1.336   1.353   1.361   1.383   1.387   1.451   1.482
  1.505   1.533   1.560   1.601   1.631   1.658   1.704   1.709
  1.728   1.750   1.782   1.787   1.794   1.808   1.814   1.827
  1.828   1.831   1.834   1.839   1.879   1.891   1.915   1.917
  1.961   1.981   2.007   2.013   2.014   2.050   2.074   2.108
  2.132   2.135   2.155   2.181   2.200   2.226   2.226   2.226
  2.241   2.260   2.277   2.300   2.336   2.358   2.367   2.372
  2.374   2.417   2.458   2.474   2.479   2.552   2.601   2.635
  2.653   2.661   2.685   2.749   2.760   2.789   2.802   2.802
  2.839   2.856   2.861   2.869   2.885   2.898   2.905   2.928
  2.959   2.979   2.984   3.003   3.015   3.020   3.047   3.051
  3.057   3.079   3.169   3.186   3.188   3.196   3.202   3.212
  3.242   3.282   3.287   3.291   3.322   3.365   3.478   3.502
  3.586   3.589   3.593   3.748   3.767   3.793   3.906   3.913
  3.924   4.038   4.077   4.178   4.180   4.184   4.224   4.279
  4.405   4.461   4.547   4.567   4.576   4.587   4.635   4.657
  4.698   4.809   5.003   5.272   5.625   5.795   6.296   7.418
  8.256   8.381   8.503  24.712  24.969  25.091  25.119  25.132
 25.151  25.233  25.257  25.352  49.648  51.693 293.939 294.065
294.2141028.622
 --------------------------------------------------------------

          Ground-State Mulliken Net Atomic Charges

     Atom                 Charge (a.u.)
  ----------------------------------------
      1 C                    -0.156890
      2 C                    -0.184596
      3 C                    -0.371560
      4 C                    -0.349900
      5 C                    -0.305790
      6 H                     0.237928
      7 H                     0.210031
      8 H                     0.181507
      9 H                     0.216262
     10 H                     0.205276
     11 C                     0.758807
     12 Br                   -0.436952
     13 O                    -0.302188
     14 C                     0.651735
     15 C                    -0.533967
     16 C                    -0.811051
     17 H                     0.176826
     18 H                     0.176742
     19 H                     0.134819
     20 H                     0.121937
     21 H                     0.191347
     22 H                     0.189681
  ----------------------------------------
  Sum of atomic charges =    -0.000000

 -----------------------------------------------------------------
                    Cartesian Multipole Moments
 -----------------------------------------------------------------
    Charge (ESU x 10^10)
                -0.0000
    Dipole Moment (Debye)
         X      -0.9178      Y       2.7719      Z      -0.0635
       Tot       2.9206
    Quadrupole Moments (Debye-Ang)
        XX     -53.0946     XY      -7.7230     YY     -75.0024
        XZ       0.1387     YZ       0.1122     ZZ     -83.0500
    Octopole Moments (Debye-Ang^2)
       XXX     -75.4961    XXY      15.3670    XYY       9.0303
       YYY      -9.0944    XXZ      -0.8318    XYZ      -0.0546
       YYZ       0.0481    XZZ     -27.8411    YZZ      -5.9500
       ZZZ       0.4821
    Hexadecapole Moments (Debye-Ang^3)
      XXXX   -4217.0216   XXXY     -49.0145   XXYY    -866.0730
      XYYY      -3.2386   YYYY    -487.5191   XXXZ       0.2037
      XXYZ       0.8536   XYYZ       0.1586   YYYZ       0.1516
      XXZZ    -901.3597   XYZZ       3.2402   YYZZ    -111.4120
      XZZZ       0.2380   YZZZ       0.0134   ZZZZ    -109.1915
 -----------------------------------------------------------------
 Mayer SCF Bond Order, atomic valence on the diagonal:

            1           2           3           4           5           6
    1   4.0050818   1.4536416   0.0009368   0.0045588   0.0575452   0.8622549
    2   1.4536416   3.9909085   1.6016050   0.0169805  -0.0318759   0.0057970
    3   0.0009368   1.6016050   4.2635999   1.6345757   0.0582967   0.0192099
    4   0.0045588   0.0169805   1.6345757   4.2571816   1.5829254  -0.0204056
    5   0.0575452  -0.0318759   0.0582967   1.5829254   4.3605385   0.0183480
    6   0.8622549   0.0057970   0.0192099  -0.0204056   0.0183480   0.8841304
    7  -0.0510285   0.9022620   0.0344221   0.0024190  -0.0104391  -0.0003123
    8  -0.0089468   0.0007871   0.9435688  -0.0121680   0.0146128   0.0013059
    9  -0.0128410   0.0049662   0.0173869   0.8679944  -0.0062615  -0.0000979
   10   0.0114205  -0.0154555   0.0231356  -0.0174099   0.9076205   0.0016417
   11   1.4690024  -0.0021606  -0.1350348   0.0423265   1.1569692   0.0087216
   12   0.2391226   0.0582823   0.0636895   0.1485081   0.5747525  -0.0122681
   13  -0.0054362   0.0006475  -0.0012488  -0.0039888   0.0031130  -0.0005220
   14  -0.0273115  -0.0054677   0.0007907   0.0062664   0.0328523  -0.0007548
   15   0.0038010  -0.0011710   0.0010778   0.0008033  -0.0002781   0.0010726
   16  -0.0069312  -0.0000248   0.0027422   0.0062943   0.0137549   0.0003852
   17   0.0000845   0.0003361   0.0000684   0.0001084   0.0002607   0.0000525
   18   0.0000848   0.0003112   0.0000732   0.0001368   0.0002300   0.0000537
   19   0.0003890   0.0000344  -0.0000651  -0.0001645  -0.0003962  -0.0000658
   20   0.0025749  -0.0003281   0.0001232   0.0005466  -0.0013440   0.0001374
   21   0.0059538   0.0008803  -0.0008701  -0.0015680  -0.0050565  -0.0002123
   22   0.0062061   0.0008610  -0.0008840  -0.0015578  -0.0050915  -0.0002113
            7           8           9          10          11          12
    1  -0.0510285  -0.0089468  -0.0128410   0.0114205   1.4690024   0.2391226
    2   0.9022620   0.0007871   0.0049662  -0.0154555  -0.0021606   0.0582823
    3   0.0344221   0.9435688   0.0173869   0.0231356  -0.1350348   0.0636895
    4   0.0024190  -0.0121680   0.8679944  -0.0174099   0.0423265   0.1485081
    5  -0.0104391   0.0146128  -0.0062615   0.9076205   1.1569692   0.5747525
    6  -0.0003123   0.0013059  -0.0000979   0.0016417   0.0087216  -0.0122681
    7   0.9065730   0.0020517   0.0010131  -0.0003290   0.0260169   0.0007177
    8   0.0020517   0.9358719   0.0009205   0.0016239  -0.0087951   0.0008265
    9   0.0010131   0.0009205   0.8962819   0.0003736   0.0229640   0.0000116
   10  -0.0003290   0.0016239   0.0003736   0.9189796  -0.0008704   0.0030139
   11   0.0260169  -0.0087951   0.0229640  -0.0008704   2.6381064   0.0873260
   12   0.0007177   0.0008265   0.0000116   0.0030139   0.0873260   1.1264243
   13  -0.0000242  -0.0000966   0.0001643   0.0001177   0.0114901  -0.0336610
   14   0.0000645   0.0001779  -0.0005283   0.0021840  -0.0255773  -0.0189408
   15  -0.0001153   0.0000339  -0.0000212   0.0029043   0.0102186   0.0377554
   16  -0.0001387   0.0000079   0.0001185  -0.0005413  -0.0183378  -0.0242292
   17  -0.0000059   0.0000007   0.0000155  -0.0000179  -0.0007752  -0.0000237
   18  -0.0000061   0.0000015   0.0000158  -0.0000175  -0.0007607   0.0000349
   19   0.0000057  -0.0000011  -0.0000224   0.0000122  -0.0002487   0.0000646
   20  -0.0000098   0.0000095   0.0000021   0.0001035  -0.0004148   0.0075469
   21   0.0000049  -0.0000253   0.0000541  -0.0002532  -0.0017931  -0.0040705
   22   0.0000042  -0.0000238   0.0000537  -0.0002771  -0.0021606  -0.0020349
           13          14          15          16          17          18
    1  -0.0054362  -0.0273115   0.0038010  -0.0069312   0.0000845   0.0000848
    2   0.0006475  -0.0054677  -0.0011710  -0.0000248   0.0003361   0.0003112
    3  -0.0012488   0.0007907   0.0010778   0.0027422   0.0000684   0.0000732
    4  -0.0039888   0.0062664   0.0008033   0.0062943   0.0001084   0.0001368
    5   0.0031130   0.0328523  -0.0002781   0.0137549   0.0002607   0.0002300
    6  -0.0005220  -0.0007548   0.0010726   0.0003852   0.0000525   0.0000537
    7  -0.0000242   0.0000645  -0.0001153  -0.0001387  -0.0000059  -0.0000061
    8  -0.0000966   0.0001779   0.0000339   0.0000079   0.0000007   0.0000015
    9   0.0001643  -0.0005283  -0.0000212   0.0001185   0.0000155   0.0000158
   10   0.0001177   0.0021840   0.0029043  -0.0005413  -0.0000179  -0.0000175
   11   0.0114901  -0.0255773   0.0102186  -0.0183378  -0.0007752  -0.0007607
   12  -0.0336610  -0.0189408   0.0377554  -0.0242292  -0.0000237   0.0000349
   13   1.7280818   2.0049856  -0.1212167  -0.0930771  -0.0112106  -0.0112869
   14   2.0049856   3.2333280   0.7218507   0.7066805   0.0029759   0.0028642
   15  -0.1212167   0.7218507   3.7195798   0.1150135  -0.0028146  -0.0029956
   16  -0.0930771   0.7066805   0.1150135   3.6538007   0.9659384   0.9662326
   17  -0.0112106   0.0029759  -0.0028146   0.9659384   0.9150323  -0.0246660
   18  -0.0112869   0.0028642  -0.0029956   0.9662326  -0.0246660   0.9151431
   19   0.0048450  -0.0649529  -0.0106543   1.0156424  -0.0163780  -0.0162695
   20   0.0004189  -0.0953023   1.0370423   0.0118055   0.0015568   0.0015389
   21  -0.0083108  -0.0053171   0.9641745  -0.0038163  -0.0001016  -0.0003216
   22  -0.0076206  -0.0042121   0.9630985  -0.0037187  -0.0003719  -0.0001107
           19          20          21          22
    1   0.0003890   0.0025749   0.0059538   0.0062061
    2   0.0000344  -0.0003281   0.0008803   0.0008610
    3  -0.0000651   0.0001232  -0.0008701  -0.0008840
    4  -0.0001645   0.0005466  -0.0015680  -0.0015578
    5  -0.0003962  -0.0013440  -0.0050565  -0.0050915
    6  -0.0000658   0.0001374  -0.0002123  -0.0002113
    7   0.0000057  -0.0000098   0.0000049   0.0000042
    8  -0.0000011   0.0000095  -0.0000253  -0.0000238
    9  -0.0000224   0.0000021   0.0000541   0.0000537
   10   0.0000122   0.0001035  -0.0002532  -0.0002771
   11  -0.0002487  -0.0004148  -0.0017931  -0.0021606
   12   0.0000646   0.0075469  -0.0040705  -0.0020349
   13   0.0048450   0.0004189  -0.0083108  -0.0076206
   14  -0.0649529  -0.0953023  -0.0053171  -0.0042121
   15  -0.0106543   1.0370423   0.9641745   0.9630985
   16   1.0156424   0.0118055  -0.0038163  -0.0037187
   17  -0.0163780   0.0015568  -0.0001016  -0.0003719
   18  -0.0162695   0.0015389  -0.0003216  -0.0001107
   19   0.9057434  -0.0107530   0.0023126   0.0024092
   20  -0.0107530   0.9106951  -0.0222576  -0.0223021
   21   0.0023126  -0.0222576   0.8914343  -0.0279717
   22   0.0024092  -0.0223021  -0.0279717   0.8940838


 JobOver = TRUE
Archival summary:
1\1\qciep03\SP\HF\BasisUnspecified\r11911\jcartus\ThuFeb112:30:082018ThuFeb112:30:082018\0\\#,HF,BasisUnspecified,\\0,1\Br\C,1,1.89077\C,2,1.39317,1,119.427\H,3,1.08051,2,119.921,1,0.041355,0\C,3,1.39323,2,119.23,1,-179.947,0\H,5,1.08148,3,119.389,2,179.986,0\C,2,1.39329,1,119.645,3,-179.961,0\H,7,1.08052,2,119.967,1,-0.0387099,0\C,7,1.39334,2,119.243,1,179.948,0\H,9,1.08151,7,119.413,2,-179.987,0\C,9,1.3933,7,120.435,2,0.00105497,0\H,11,1.08092,9,120.144,7,-179.985,0\O,1,3.06461,2,178.602,3,-175.976,0\C,13,1.21833,1,120.245,2,-2.45944,0\C,14,1.51315,13,120.558,1,-1.56498,0\H,15,1.08539,14,113.144,13,-179.999,0\H,15,1.08875,14,108.695,13,58.0164,0\H,15,1.08875,14,108.697,13,-58.0203,0\C,14,1.51349,13,120.334,1,178.432,0\H,19,1.08532,14,113.235,13,-179.983,0\H,19,1.08859,14,108.619,13,-58.1091,0\H,19,1.08859,14,108.621,13,58.1437,0\\HF=-2994.5514\\@

 Total job time:  743.94s(wall), 724.56s(cpu) 
 Thu Feb  1 12:30:08 2018

        *************************************************************
        *                                                           *
        *  Thank you very much for using Q-Chem.  Have a nice day.  *
        *                                                           *
        *************************************************************


*** MISSION COMPLETED -- STARFLEET OUT ***

0 sent ACK to 0 
now end server 0 ... 
