Process 0 of 1 is on qciep03 - thread support 0
initial socket setup ...start
initial socket setup ...done 
now start server 0 ... 
qciep03.tugraz.at 127.0.1
Q-Chem Developer Version! Running on 127.0.1.*
                  Welcome to Q-Chem
     A Quantum Leap Into The Future Of Chemistry


 Q-Chem 5.0, Q-Chem, Inc., Pleasanton, CA (2017)

 Yihan Shao,  Zhengting Gan,  E. Epifanovsky,  A. T. B. Gilbert,  M. Wormit,  
 J. Kussmann,  A. W. Lange,  A. Behn,  Jia Deng,  Xintian Feng,  D. Ghosh,  
 M. Goldey,  P. R. Horn,  L. D. Jacobson,  I. Kaliman,  T. Kus,  A. Landau,  
 Jie Liu,  E. I. Proynov,  R. M. Richard,  R. P. Steele,  E. J. Sundstrom,  
 H. L. Woodcock III,  P. M. Zimmerman,  D. Zuev,  B. Albrecht,  E. Alguire,  
 S. A. Baeppler,  D. Barton,  Z. Benda,  Y. A. Bernard,  E. J. Berquist,  
 K. B. Bravaya,  H. Burton,  D. Casanova,  Chun-Min Chang,  Yunqing Chen,  
 A. Chien,  K. D. Closser,  M. P. Coons,  S. Dasgupta,  A. L. Dempwolff,  
 M. Diedenhofen,  Hainam Do,  R. G. Edgar,  Po-Tung Fang,  S. Fatehi,  
 Qingguo Feng,  J. Fosso-Tande,  Qinghui Ge,  A. Ghysels,  G. Gidofalvi,  
 J. Gomes,  J. Gonthier,  A. Gunina,  M. W. D. Hanson-Heine,  
 P. H. P. Harbach,  A. W. Hauser,  J. E. Herr,  E. G. Hohenstein,  
 Z. C. Holden,  Kerwin Hui,  T.-C. Jagau,  Hyunjun Ji,  B. Kaduk,  
 K. Khistyaev,  Jaehoon Kim,  P. Klunzinger,  K. Koh,  D. Kosenkov,  
 L. Koulias,  T. Kowalczyk,  C. M. Krauter,  A. Kunitsa,  Ka Un Lao,  
 A. Laurent,  K. V. Lawler,  Joonho Lee,  D. Lefrancois,  S. Lehtola,  
 D. S. Levine,  Yi-Pei Li,  You-Sheng Lin,  Fenglai Liu,  E. Livshits,  
 A. Luenser,  P. Manohar,  E. Mansoor,  S. F. Manzer,  Shan-Ping Mao,  
 Yuezhi Mao,  N. Mardirossian,  A. V. Marenich,  T. Markovich,  
 L. A. Martinez-Martinez,  S. A. Maurer,  N. J. Mayhall,  S. C. McKenzie,  
 J.-M. Mewes,  A. F. Morrison,  J. W. Mullinax,  K. Nanda,  
 T. S. Nguyen-Beck,  R. Olivares-Amaya,  J. A. Parkhill,  T. M. Perrine,  
 F. Plasser,  S. Prager,  A. Prociuk,  E. Ramos,  D. R. Rehn,  F. Rob,  
 M. Schneider,  N. Sergueev,  S. M. Sharada,  S. Sharma,  D. W. Small,  
 T. Stauch,  T. Stein,  Yu-Chuan Su,  A. J. W. Thom,  A. Tkatchenko,  
 T. Tsuchimochi,  L. Vogt,  O. Vydrov,  M. A. Watson,  J. Wenzel,  
 M. de Wergifosse,  T. A. Wesolowski,  A. White,  J. Witte,  A. Yamada,  
 Jun Yang,  K. Yao,  S. Yeganeh,  S. R. Yost,  Zhi-Qiang You,  A. Zech,  
 Igor Ying Zhang,  Xing Zhang,  Yan Zhao,  Ying Zhu,  B. R. Brooks,  
 G. K. L. Chan,  C. J. Cramer,  M. S. Gordon,  W. J. Hehre,  A. Klamt,  
 M. W. Schmidt,  C. D. Sherrill,  D. G. Truhlar,  A. Aspuru-Guzik,  R. Baer,  
 A. T. Bell,  N. A. Besley,  Jeng-Da Chai,  R. A. DiStasio Jr.,  A. Dreuw,  
 B. D. Dunietz,  T. R. Furlani,  Chao-Ping Hsu,  Yousung Jung,  Jing Kong,  
 D. S. Lambrecht,  WanZhen Liang,  C. Ochsenfeld,  V. A. Rassolov,  
 L. V. Slipchenko,  J. E. Subotnik,  T. Van Voorhis,  J. M. Herbert,  
 A. I. Krylov,  P. M. W. Gill,  M. Head-Gordon

 Contributors to earlier versions of Q-Chem not listed above: 
 R. D. Adamson,  B. Austin,  J. Baker,  G. J. O. Beran,  K. Brandhorst,  
 S. T. Brown,  E. F. C. Byrd,  A. K. Chakraborty,  C.-L. Cheng,  
 Siu Hung Chien,  D. M. Chipman,  D. L. Crittenden,  H. Dachsel,  
 R. J. Doerksen,  A. D. Dutoi,  L. Fusti-Molnar,  W. A. Goddard III,  
 A. Golubeva-Zadorozhnaya,  S. R. Gwaltney,  G. Hawkins,  A. Heyden,  
 S. Hirata,  G. Kedziora,  F. J. Keil,  C. Kelley,  Jihan Kim,  R. A. King,  
 R. Z. Khaliullin,  P. P. Korambath,  W. Kurlancheek,  A. M. Lee,  M. S. Lee,  
 S. V. Levchenko,  Ching Yeh Lin,  D. Liotard,  R. C. Lochan,  I. Lotan,  
 P. E. Maslen,  N. Nair,  D. P. O'Neill,  D. Neuhauser,  E. Neuscamman,  
 C. M. Oana,  R. Olson,  B. Peters,  R. Peverati,  P. A. Pieniazek,  
 Y. M. Rhee,  J. Ritchie,  M. A. Rohrdanz,  E. Rosta,  N. J. Russ,  
 H. F. Schaefer III,  N. E. Schultz,  N. Shenvi,  A. C. Simmonett,  A. Sodt,  
 D. Stuck,  K. S. Thanthiriwatte,  V. Vanovschi,  Tao Wang,  A. Warshel,  
 C. F. Williams,  Q. Wu,  X. Xu,  W. Zhang

 Please cite Q-Chem as follows:
 Y. Shao et al., Mol. Phys. 113, 184-215 (2015)
 DOI: 10.1080/00268976.2014.952696

 Q-Chem 5.0.2 for Intel X86 EM64T Linux

 Parts of Q-Chem use Armadillo 5.200.1 (Boston Tea Smuggler).
 http://arma.sourceforge.net/

 Q-Chem begins on Thu Jan 25 17:20:58 2018  


Host: 0

     Scratch files written to /home/jcartus/scratch/Phenol-dimer.dir//
 Using version located at /usr/local/qchem/bin/qchem

 Parallel job on  1  processors

Total Memory Limit in MB = 2000
Mega-Array Size in MB = 192

Checking the input file for inconsistencies... 	...done.
Finally everything over in PARseQInput

--------------------------------------------------------------
User input:
--------------------------------------------------------------
$rem
SCF_PRINT                     1
BASIS                         6-311++g**
SCF_SAVE_MATRICES             1
SCF_CONVERGENCE               5
SCF_FINAL_PRINT               1
METHOD                        hf
JOBTYPE                       sp
$end

$molecule
0 1
C    -2.0071056    0.7638459    -0.1083509
O    -1.3885044    1.9298523    -0.4431206
H    -0.5238121    1.9646519    -0.0064609
C    -1.4630807    -0.151912    0.794993
C    -2.1475789    -1.3295094    1.0883677
C    -3.3743208    -1.6031427    0.4895864
C    -3.9143727    -0.6838545    -0.4091028
C    -3.2370496    0.4929609    -0.7096126
H    -0.510651    0.0566569    1.2642563
H    -1.7151135    -2.0321452    1.7878417
H    -3.9024664    -2.5173865    0.7197947
H    -4.867073    -0.8822939    -0.8811319
H    -3.6431662    1.2134345    -1.405759
O    1.3531168    1.9382724    0.4723133
C    2.0369747    0.7865043    0.1495491
H    1.7842846    2.3487495    1.229711
C    1.5904026    0.069686    -0.9574153
C    2.2417367    -1.1069765    -1.312811
C    3.3315674    -1.5665603    -0.5748636
C    3.7696838    -0.8396901    0.5286439
C    3.1224836    0.3383498    0.8960491
H    0.7445512    0.4367983    -1.5218583
H    1.8921463    -1.6649726    -2.1701843
H    3.8330227    -2.4811537    -0.8566666
H    4.6137632    -1.1850101    1.1092635
H    3.4598854    0.9030376    1.7569489
$end


--------------------------------------------------------------
 ----------------------------------------------------------------
             Standard Nuclear Orientation (Angstroms)
    I     Atom           X                Y                Z
 ----------------------------------------------------------------
    1      C       2.0123544611     0.7845383140     0.1095392859
    2      O       1.3940208830     1.9460302423     0.4601233814
    3      H       0.5266729868     1.9840153990     0.0290314723
    4      C       1.4642967345    -0.1226260102    -0.8000163430
    5      C       2.1487918330    -1.2960356345    -1.1097233833
    6      C       3.3795140966    -1.5739605185    -0.5211739918
    7      C       3.9235656657    -0.6632239014     0.3837877929
    8      C       3.2462895139     0.5093407952     0.7005783451
    9      H       0.5087562967     0.0893205522    -1.2613757373
   10      H       1.7131942674    -1.9920352066    -1.8138729573
   11      H       3.9076426950    -2.4849328019    -0.7640423606
   12      H       4.8793780658    -0.8650698642     0.8480166067
   13      H       3.6554920054     1.2231705374     1.4017438971
   14      O      -1.3530528578     1.9596781345    -0.4387517627
   15      C      -2.0332298648     0.8035464414    -0.1239075793
   16      H      -1.7893735916     2.3773343292    -1.1892422141
   17      C      -1.5789473427     0.0759546727     0.9728434894
   18      C      -2.2263679717    -1.1053584884     1.3198630808
   19      C      -3.3199144449    -1.5589485120     0.5837063105
   20      C      -3.7657357983    -0.8213281127    -0.5095340737
   21      C      -3.1225231141     0.3614807973    -0.8685232259
   22      H      -0.7302774744     0.4385007684     1.5360057351
   23      H      -1.8708015053    -1.6716929652     2.1692745355
   24      H      -3.8182946140    -2.4772070758     0.8589695537
   25      H      -4.6127635132    -1.1619121057    -1.0886555201
   26      H      -3.4659324305     0.9345623605    -1.7214642057
 ----------------------------------------------------------------
 Molecular Point Group                 C1    NOp =  1
 Largest Abelian Subgroup              C1    NOp =  1
 Nuclear Repulsion Energy =   805.1177371085 hartrees
 There are       50 alpha and       50 beta electrons
 Requested basis set is 6-311++G(d,p)
 There are 144 shells and 392 basis functions

 Total QAlloc Memory Limit   2000 MB
 Mega-Array Size       188 MB
 MEM_STATIC part       192 MB

finished with qalloc call
 Job number = 2, Threshold = 1.00E-08
Integral type ranges set in mkLRange.C for JobNum: 2  <1-21|1-21>
Symmetry turned off temporarily
 Using the largest function pair in Schwarz integrals
Total number of integrals generated =          898661
Symmetry turned back on
 A cutoff of  1.0D-08 yielded   7619 shell pairs
 There are     57045 function pairs (     60719 Cartesian)
 Job number = 11, Threshold = 1.00E-08
Integral type ranges set in mkLRange.C for JobNum: 11  <1-21|22-22>
Total number of integrals generated =         1578382
 Smallest overlap matrix eigenvalue = 6.55E-07

 Q-Chem warning in module /usr/local/qchem/stvman/mkSTV.C, line 295:

 Overlap eigenvalue is smaller than square root of threshold

 Linear dependence detected in AO basis
 Number of orthogonalized atomic orbitals = 390
 Maximum deviation from orthogonality = 4.232E-11
 Multipole matrices computed through 2nd order

 Scale SEOQF with 1.000000e-01/1.000000e-01/1.000000e-01

 Standard Electronic Orientation quadrupole field applied
 Nucleus-field energy     =     0.0000000296 hartrees
 ENuRep (before)= 805.1177371085
 ENucField = 0.0000000296
 ENuRep (after) = 805.1177371380
 Guess from superposition of atomic densities
 Warning:  Energy on first SCF cycle will be non-variational
 SAD guess density has 100.000000 electrons

 ==================================================
    GEN_SCFMAN: A general SCF calculation manager  
                                                   
    Authors:                                       
        -- Eric Jon Sundstrom 2008-2014            
        -- Paul Horn 2010-2015                     
        -- Yuezhi Mao 2012-                        
        -- Dmitri Zuev 2014                        
        -- Alec White 2015-                        
        -- David Stuck 2015                        
        -- Shaama M.S. 2015                        
        -- Shane Yost 2015-                         
        -- Joonho Lee 2016-                        
        -- David Small 2016-                       
        -- Daniel Levine 2016-                     
        -- Susi Lehtola 2017-                      
        -- Hugh Burton 2017-                       
 ==================================================
 Hartree-Fock
Finding J and K together
 Job number = 22, Threshold = 1.00E-08
Integral type ranges set in mkLRange.C for JobNum: 22  <1-21|1-21>
 MakeJK  time:  CPU      26.20 s  wall      26.30 s
 HF Exchange:              -84.84447841455771
 One-Electron:             -2419.70673016891851
 Total Coulomb:            1082.53077966738670
 Nuclear repulsion:        805.11773713803427
 A restricted SCF calculation will be
 performed using DIIS
 SCF converges when DIIS error is below 1.0e-05
 ---------------------------------------
  Cycle       Energy         DIIS error
 ---------------------------------------
Finding J and K together
 Job number = 22, Threshold = 1.00E-08
Integral type ranges set in mkLRange.C for JobNum: 22  <1-21|1-21>
 MakeJK  time:  CPU     148.61 s  wall     149.20 s
 HF Exchange:              -82.92780757769071
 One-Electron:             -2429.20277305732043
 Total Coulomb:            1095.91136512795902
 Nuclear repulsion:        805.11773713803427
    1    -616.9026917781      3.54e-02  
Finding J and K together
 Job number = 22, Threshold = 1.00E-08
Integral type ranges set in mkLRange.C for JobNum: 22  <1-21|1-21>
 MakeJK  time:  CPU     169.62 s  wall     170.26 s
 HF Exchange:              -82.90873051073338
 One-Electron:             -2428.40980941177577
 Total Coulomb:            1094.94140266395084
 Nuclear repulsion:        805.11773713803427
    2    -611.1014783690      2.72e-03  
Finding J and K together
 Job number = 22, Threshold = 1.00E-08
Integral type ranges set in mkLRange.C for JobNum: 22  <1-21|1-21>
 MakeJK  time:  CPU     180.95 s  wall     182.29 s
 HF Exchange:              -83.06751619707438
 One-Electron:             -2428.86379221282959
 Total Coulomb:            1095.53574520049256
 Nuclear repulsion:        805.11773713803427
    3    -611.2594001205      1.07e-03  
Finding J and K together
 Job number = 22, Threshold = 1.00E-08
Integral type ranges set in mkLRange.C for JobNum: 22  <1-21|1-21>
 MakeJK  time:  CPU     146.81 s  wall     147.15 s
 HF Exchange:              -83.05540886205877
 One-Electron:             -2428.95167957732110
 Total Coulomb:            1095.60777990475344
 Nuclear repulsion:        805.11773713803427
    4    -611.2778260714      4.31e-04  
Finding J and K together
 Job number = 22, Threshold = 1.00E-08
Integral type ranges set in mkLRange.C for JobNum: 22  <1-21|1-21>
 MakeJK  time:  CPU     161.29 s  wall     162.76 s
 HF Exchange:              -83.05264573255478
 One-Electron:             -2428.81221868219973
 Total Coulomb:            1095.46539247604233
 Nuclear repulsion:        805.11773713803427
    5    -611.2815713966      8.57e-05  
Finding J and K together
 Job number = 22, Threshold = 1.00E-08
Integral type ranges set in mkLRange.C for JobNum: 22  <1-21|1-21>
 MakeJK  time:  CPU     169.69 s  wall     170.87 s
 HF Exchange:              -83.05533042248383
 One-Electron:             -2428.84933112211183
 Total Coulomb:            1095.50517298015529
 Nuclear repulsion:        805.11773713803427
    6    -611.2817348007      2.25e-05  
    7    -611.2817514264      8.33e-06  Convergence criterion met
 ---------------------------------------
 SCF time:   CPU 1012.79s  wall 1019.00s 
 Total energy in the final basis set =     -611.2817514264
 HF Exchange:              -83.05533042248383
 One-Electron:             -2428.84933112211183
 Total Coulomb:            1095.50517298015529
 Nuclear repulsion:        805.11773713803427
Wall  1 = 1020
Clock 1 = 1013.93939208984375
 ==================================================
                  Done GEN_SCFMAN                  
 ==================================================

Symmetry turned off temporarily

 --------------------------------------------------------------

                    Orbital Energies (a.u.)
 --------------------------------------------------------------

 Alpha MOs
 -- Occupied --
-20.616 -20.569 -11.319 -11.294 -11.255 -11.252 -11.250 -11.241
-11.241 -11.235 -11.234 -11.224 -11.221 -11.220  -1.431  -1.390
 -1.163  -1.140  -1.035  -1.021  -1.013  -0.997  -0.864  -0.841
 -0.836  -0.815  -0.752  -0.727  -0.702  -0.683  -0.665  -0.643
 -0.624  -0.615  -0.608  -0.603  -0.591  -0.582  -0.575  -0.554
 -0.530  -0.510  -0.508  -0.498  -0.484  -0.473  -0.354  -0.336
 -0.330  -0.305
 -- Virtual --
  0.032   0.042   0.047   0.054   0.056   0.065   0.066   0.074
  0.082   0.091   0.094   0.102   0.113   0.115   0.117   0.127
  0.128   0.136   0.140   0.149   0.159   0.164   0.170   0.173
  0.174   0.176   0.182   0.185   0.187   0.191   0.193   0.197
  0.198   0.199   0.204   0.209   0.213   0.218   0.220   0.223
  0.225   0.228   0.235   0.237   0.244   0.247   0.251   0.253
  0.258   0.261   0.267   0.274   0.287   0.290   0.296   0.301
  0.305   0.318   0.321   0.325   0.335   0.337   0.354   0.360
  0.363   0.372   0.376   0.385   0.387   0.399   0.400   0.411
  0.415   0.422   0.424   0.426   0.435   0.438   0.445   0.457
  0.459   0.470   0.479   0.496   0.512   0.518   0.522   0.532
  0.539   0.556   0.567   0.571   0.586   0.596   0.651   0.656
  0.675   0.693   0.711   0.719   0.728   0.732   0.738   0.738
  0.746   0.752   0.760   0.761   0.775   0.776   0.781   0.795
  0.802   0.809   0.816   0.821   0.843   0.854   0.866   0.873
  0.885   0.897   0.901   0.920   0.933   0.935   0.941   0.946
  0.956   0.968   0.972   0.992   0.992   1.001   1.007   1.019
  1.031   1.044   1.054   1.067   1.077   1.085   1.091   1.109
  1.114   1.130   1.136   1.142   1.149   1.154   1.165   1.171
  1.205   1.222   1.227   1.233   1.239   1.245   1.266   1.278
  1.316   1.337   1.339   1.353   1.372   1.380   1.381   1.400
  1.405   1.428   1.480   1.483   1.502   1.511   1.528   1.538
  1.615   1.644   1.694   1.735   1.749   1.771   1.776   1.788
  1.800   1.822   1.825   1.826   1.842   1.845   1.850   1.860
  1.877   1.879   1.903   1.907   1.926   1.930   1.937   1.947
  1.961   1.990   2.011   2.017   2.029   2.054   2.057   2.065
  2.090   2.107   2.138   2.146   2.189   2.213   2.218   2.222
  2.225   2.237   2.240   2.247   2.249   2.260   2.266   2.272
  2.290   2.300   2.331   2.332   2.352   2.366   2.378   2.386
  2.399   2.419   2.446   2.562   2.586   2.600   2.641   2.649
  2.662   2.685   2.749   2.772   2.790   2.798   2.813   2.827
  2.845   2.863   2.919   2.959   2.978   2.980   2.989   3.011
  3.017   3.023   3.031   3.038   3.046   3.047   3.061   3.068
  3.088   3.095   3.125   3.134   3.158   3.173   3.179   3.198
  3.208   3.219   3.230   3.249   3.277   3.289   3.301   3.317
  3.341   3.348   3.475   3.484   3.496   3.511   3.522   3.546
  3.553   3.581   3.595   3.619   3.754   3.769   3.791   3.818
  3.841   3.882   3.912   3.930   3.949   3.954   4.029   4.043
  4.078   4.113   4.324   4.357   4.406   4.428   4.449   4.468
  4.548   4.572   4.576   4.591   4.595   4.632   5.270   5.292
  5.595   5.624   6.007   6.114   6.302   6.420  24.744  24.769
 25.093  25.115  25.136  25.151  25.235  25.251  25.258  25.278
 25.356  25.375  51.629  51.687
 --------------------------------------------------------------

          Ground-State Mulliken Net Atomic Charges

     Atom                 Charge (a.u.)
  ----------------------------------------
      1 C                    -0.410473
      2 O                    -0.329953
      3 H                     0.430098
      4 C                     0.306846
      5 C                    -0.070698
      6 C                    -0.502730
      7 C                    -0.120046
      8 C                    -0.253764
      9 H                     0.168662
     10 H                     0.212449
     11 H                     0.175736
     12 H                     0.203572
     13 H                     0.213107
     14 O                    -0.315190
     15 C                    -0.281420
     16 H                     0.293434
     17 C                     0.151998
     18 C                    -0.101983
     19 C                    -0.524523
     20 C                    -0.125309
     21 C                    -0.114063
     22 H                     0.204981
     23 H                     0.227926
     24 H                     0.180086
     25 H                     0.214808
     26 H                     0.166448
  ----------------------------------------
  Sum of atomic charges =    -0.000000

 -----------------------------------------------------------------
                    Cartesian Multipole Moments
 -----------------------------------------------------------------
    Charge (ESU x 10^10)
                -0.0000
    Dipole Moment (Debye)
         X      -3.0351      Y      -0.9269      Z      -1.7032
       Tot       3.6017
    Quadrupole Moments (Debye-Ang)
        XX     -77.8244     XY      -4.2496     YY     -81.9193
        XZ       8.0779     YZ      -5.4206     ZZ     -80.6022
    Octopole Moments (Debye-Ang^2)
       XXX      -6.7613    XXY     -15.0183    XYY     -19.4979
       YYY      10.9854    XXZ      -6.6643    XYZ      17.7603
       YYZ     -14.5186    XZZ     -12.3687    YZZ       7.9497
       ZZZ      -1.4576
    Hexadecapole Moments (Debye-Ang^3)
      XXXX   -3535.4284   XXXY       5.1682   XXYY    -688.8913
      XYYY     -39.1971   YYYY    -795.6265   XXXZ     198.1681
      XXYZ     -13.7120   XYYZ       0.5424   YYYZ     -36.8244
      XXZZ    -681.2069   XYZZ      -6.8698   YYZZ    -177.4345
      XZZZ      35.2294   YZZZ     -17.8814   ZZZZ    -411.2922
 -----------------------------------------------------------------
 Mayer SCF Bond Order, atomic valence on the diagonal:

            1           2           3           4           5           6
    1   4.6822901   1.5172832   0.0708195   1.2260705   0.1276974   0.0290589
    2   1.5172832   1.7429999   0.7962620  -0.1792502  -0.0369718   0.0050747
    3   0.0708195   0.7962620   0.7702745  -0.0665860  -0.0041100  -0.0049548
    4   1.2260705  -0.1792502  -0.0665860   3.6078624   1.3874208   0.0261263
    5   0.1276974  -0.0369718  -0.0041100   1.3874208   3.9191322   1.6585859
    6   0.0290589   0.0050747  -0.0049548   0.0261263   1.6585859   4.3485341
    7  -0.0334033  -0.0009672   0.0026168  -0.1162231  -0.0329520   1.6206536
    8   1.7876840  -0.3743486   0.0159044   0.2822181  -0.0659482   0.0526168
    9   0.0335364  -0.0209468   0.0003086   0.9653810  -0.0587707   0.0054081
   10   0.0260413   0.0001968   0.0012414   0.0005716   0.8600208   0.0097623
   11  -0.0061053  -0.0002538  -0.0004065   0.0286150  -0.0144495   0.9113463
   12   0.0151422   0.0027313   0.0006589  -0.0052419   0.0017003   0.0091998
   13  -0.0164710  -0.0271959   0.0002850   0.0023475  -0.0272164   0.0150030
   14  -0.0713269   0.0495177  -0.0437234   0.0216285   0.0405677  -0.0006412
   15  -0.0914633  -0.1263315  -0.0111837  -0.0016191   0.0149269  -0.0032665
   16   0.0031862   0.0002134  -0.0031533  -0.0024490   0.0000010  -0.0002466
   17   0.0060131   0.0721318  -0.0033520  -0.0070236   0.0233300   0.0093360
   18   0.0590120   0.0448909   0.0016373   0.0236141   0.0288435   0.0041557
   19  -0.0009871   0.0002028  -0.0026312   0.0128071   0.0081171  -0.0015149
   20   0.0000802   0.0006879   0.0036152  -0.0172082   0.0000386   0.0019831
   21  -0.0016962  -0.0205019   0.0104268   0.0061881  -0.0019972  -0.0014065
   22   0.0001838   0.0408371   0.0063024   0.0228794   0.0113056   0.0028043
   23   0.0003219  -0.0004876   0.0000255  -0.0026552  -0.0014385  -0.0000752
   24  -0.0003913   0.0000206  -0.0000524   0.0005200   0.0007025  -0.0001437
   25  -0.0000203   0.0000062   0.0000181   0.0000233  -0.0003898  -0.0001725
   26   0.0020240   0.0001985   0.0003059  -0.0002927   0.0001182  -0.0001588
            7           8           9          10          11          12
    1  -0.0334033   1.7876840   0.0335364   0.0260413  -0.0061053   0.0151422
    2  -0.0009672  -0.3743486  -0.0209468   0.0001968  -0.0002538   0.0027313
    3   0.0026168   0.0159044   0.0003086   0.0012414  -0.0004065   0.0006589
    4  -0.1162231   0.2822181   0.9653810   0.0005716   0.0286150  -0.0052419
    5  -0.0329520  -0.0659482  -0.0587707   0.8600208  -0.0144495   0.0017003
    6   1.6206536   0.0526168   0.0054081   0.0097623   0.9113463   0.0091998
    7   3.9758677   1.5983388  -0.0128176   0.0060814   0.0208517   0.9056501
    8   1.5983388   4.1687557   0.0068592  -0.0118674   0.0025768  -0.0308567
    9  -0.0128176   0.0068592   0.9420805   0.0005759   0.0019061  -0.0003900
   10   0.0060814  -0.0118674   0.0005759   0.8919057   0.0003569   0.0011486
   11   0.0208517   0.0025768   0.0019061   0.0003569   0.9482337   0.0023935
   12   0.9056501  -0.0308567  -0.0003900   0.0011486   0.0023935   0.9026755
   13   0.0345236   0.9159393   0.0030945  -0.0003898   0.0011217   0.0010841
   14   0.0025481   0.0069294   0.0207356  -0.0001722   0.0000786  -0.0000364
   15   0.0032972   0.0091142   0.0141417   0.0003840  -0.0006175  -0.0001108
   16  -0.0004098  -0.0009247  -0.0006860   0.0000480   0.0000984  -0.0000111
   17  -0.0118382  -0.0133773  -0.0204044  -0.0010152   0.0001143   0.0000590
   18  -0.0048043   0.0007969   0.0112354  -0.0010964   0.0004056  -0.0003803
   19  -0.0001428  -0.0027037   0.0092692  -0.0007708  -0.0001456  -0.0000136
   20   0.0004241  -0.0012861  -0.0081546   0.0001573   0.0001978  -0.0000098
   21  -0.0023363   0.0047460  -0.0034782   0.0007304   0.0000267   0.0001052
   22  -0.0036415  -0.0130260  -0.0055461  -0.0001254   0.0001187  -0.0001403
   23   0.0000253   0.0005064  -0.0003152   0.0000976   0.0000014  -0.0000066
   24   0.0002121  -0.0004029   0.0000634   0.0000075   0.0000012   0.0000014
   25  -0.0000875   0.0000674  -0.0003784   0.0000019   0.0000032   0.0000032
   26   0.0002683  -0.0008004   0.0014537  -0.0000811  -0.0000018  -0.0000044
           13          14          15          16          17          18
    1  -0.0164710  -0.0713269  -0.0914633   0.0031862   0.0060131   0.0590120
    2  -0.0271959   0.0495177  -0.1263315   0.0002134   0.0721318   0.0448909
    3   0.0002850  -0.0437234  -0.0111837  -0.0031533  -0.0033520   0.0016373
    4   0.0023475   0.0216285  -0.0016191  -0.0024490  -0.0070236   0.0236141
    5  -0.0272164   0.0405677   0.0149269   0.0000010   0.0233300   0.0288435
    6   0.0150030  -0.0006412  -0.0032665  -0.0002466   0.0093360   0.0041557
    7   0.0345236   0.0025481   0.0032972  -0.0004098  -0.0118382  -0.0048043
    8   0.9159393   0.0069294   0.0091142  -0.0009247  -0.0133773   0.0007969
    9   0.0030945   0.0207356   0.0141417  -0.0006860  -0.0204044   0.0112354
   10  -0.0003898  -0.0001722   0.0003840   0.0000480  -0.0010152  -0.0010964
   11   0.0011217   0.0000786  -0.0006175   0.0000984   0.0001143   0.0004056
   12   0.0010841  -0.0000364  -0.0001108  -0.0000111   0.0000590  -0.0003803
   13   0.9048445   0.0004173   0.0008478   0.0000074  -0.0003343   0.0007682
   14   0.0004173   1.7655984   1.5728942   0.8757809  -0.4680823  -0.0513551
   15   0.0008478   1.5728942   4.7041116   0.1732187   1.4022716   0.2241364
   16   0.0000074   0.8757809   0.1732187   0.9438829   0.0520908  -0.0031103
   17  -0.0003343  -0.4680823   1.4022716   0.0520908   3.6945574   1.4402541
   18   0.0007682  -0.0513551   0.2241364  -0.0031103   1.4402541   4.0940251
   19  -0.0001649   0.0074596   0.0469206  -0.0030512   0.0418741   1.6082232
   20   0.0002788  -0.0197887   0.0400063  -0.0093253  -0.0776905  -0.0460112
   21  -0.0001276  -0.1510424   1.5006640  -0.1455858   0.3035342  -0.0691672
   22   0.0010578  -0.0217477  -0.0104934   0.0006838   0.9627230  -0.0228957
   23  -0.0000269   0.0020411   0.0270784   0.0001671  -0.0193638   0.8712509
   24  -0.0000042  -0.0006863  -0.0063716   0.0000458   0.0152832  -0.0080510
   25   0.0000055   0.0013334   0.0250566   0.0005306  -0.0069559   0.0009414
   26  -0.0000061  -0.0077310  -0.0993898   0.0067638  -0.0050201  -0.0192692
           19          20          21          22          23          24
    1  -0.0009871   0.0000802  -0.0016962   0.0001838   0.0003219  -0.0003913
    2   0.0002028   0.0006879  -0.0205019   0.0408371  -0.0004876   0.0000206
    3  -0.0026312   0.0036152   0.0104268   0.0063024   0.0000255  -0.0000524
    4   0.0128071  -0.0172082   0.0061881   0.0228794  -0.0026552   0.0005200
    5   0.0081171   0.0000386  -0.0019972   0.0113056  -0.0014385   0.0007025
    6  -0.0015149   0.0019831  -0.0014065   0.0028043  -0.0000752  -0.0001437
    7  -0.0001428   0.0004241  -0.0023363  -0.0036415   0.0000253   0.0002121
    8  -0.0027037  -0.0012861   0.0047460  -0.0130260   0.0005064  -0.0004029
    9   0.0092692  -0.0081546  -0.0034782  -0.0055461  -0.0003152   0.0000634
   10  -0.0007708   0.0001573   0.0007304  -0.0001254   0.0000976   0.0000075
   11  -0.0001456   0.0001978   0.0000267   0.0001187   0.0000014   0.0000012
   12  -0.0000136  -0.0000098   0.0001052  -0.0001403  -0.0000066   0.0000014
   13  -0.0001649   0.0002788  -0.0001276   0.0010578  -0.0000269  -0.0000042
   14   0.0074596  -0.0197887  -0.1510424  -0.0217477   0.0020411  -0.0006863
   15   0.0469206   0.0400063   1.5006640  -0.0104934   0.0270784  -0.0063716
   16  -0.0030512  -0.0093253  -0.1455858   0.0006838   0.0001671   0.0000458
   17   0.0418741  -0.0776905   0.3035342   0.9627230  -0.0193638   0.0152832
   18   1.6082232  -0.0460112  -0.0691672  -0.0228957   0.8712509  -0.0080510
   19   4.3688634   1.6597924   0.0264544   0.0121843   0.0077435   0.9193679
   20   1.6597924   4.0767638   1.6056525  -0.0203907   0.0040943   0.0162003
   21   0.0264544   1.6056525   4.0187659  -0.0029556  -0.0079111   0.0060729
   22   0.0121843  -0.0203907  -0.0029556   0.9674849   0.0024824   0.0020350
   23   0.0077435   0.0040943  -0.0079111   0.0024824   0.8854556   0.0010731
   24   0.9193679   0.0162003   0.0060729   0.0020350   0.0010731   0.9493421
   25   0.0097004   0.8675232  -0.0035698  -0.0006201   0.0011581   0.0026191
   26   0.0108726   0.0758969   0.9659406   0.0034699  -0.0003315   0.0012194
           25          26
    1  -0.0000203   0.0020240
    2   0.0000062   0.0001985
    3   0.0000181   0.0003059
    4   0.0000233  -0.0002927
    5  -0.0003898   0.0001182
    6  -0.0001725  -0.0001588
    7  -0.0000875   0.0002683
    8   0.0000674  -0.0008004
    9  -0.0003784   0.0014537
   10   0.0000019  -0.0000811
   11   0.0000032  -0.0000018
   12   0.0000032  -0.0000044
   13   0.0000055  -0.0000061
   14   0.0013334  -0.0077310
   15   0.0250566  -0.0993898
   16   0.0005306   0.0067638
   17  -0.0069559  -0.0050201
   18   0.0009414  -0.0192692
   19   0.0097004   0.0108726
   20   0.8675232   0.0758969
   21  -0.0035698   0.9659406
   22  -0.0006201   0.0034699
   23   0.0011581  -0.0003315
   24   0.0026191   0.0012194
   25   0.9002878   0.0034904
   26   0.0034904   0.9389354


 JobOver = TRUE
Archival summary:
1\1\qciep03\SP\HF\BasisUnspecified\21212\jcartus\ThuJan2517:38:022018ThuJan2517:38:022018\0\\#,HF,BasisUnspecified,\\0,1\O\H,1,0.963353\C,1,1.37783,2,108.555\C,3,1.39156,1,122.054,2,2.76649,0\H,4,1.08345,3,120.088,1,-0.470869,0\C,3,1.39235,1,117.22,2,-177.829,0\H,6,1.08113,3,119.419,1,0.538499,0\C,6,1.39107,3,119.237,1,-179.347,0\H,8,1.08105,6,119.197,3,179.772,0\C,4,1.39342,3,119.547,1,179.497,0\H,10,1.08113,4,119.41,3,179.905,0\C,10,1.39213,4,120.282,3,-0.209656,0\H,12,1.08044,10,120.177,4,-179.838,0\H,1,1.93721,2,128.473,3,148.429,0\O,14,0.969317,1,167.2,2,159.108,0\C,15,1.36173,14,108.98,1,103.967,0\C,16,1.39558,15,117.429,14,-176.132,0\H,17,1.08103,16,118.631,15,-0.159939,0\C,17,1.39067,16,120.026,15,179.849,0\H,19,1.08159,17,119.338,16,179.968,0\C,19,1.39441,17,120.565,16,-0.123716,0\H,21,1.08064,19,120.382,17,-179.905,0\C,21,1.39223,19,119.267,17,0.165462,0\H,23,1.08166,21,120.182,19,179.987,0\C,23,1.39332,21,120.559,19,-0.0524541,0\H,25,1.08205,23,120.266,21,179.908,0\\HF=-611.281751\\@

 Total job time:  1023.30s(wall), 1017.23s(cpu) 
 Thu Jan 25 17:38:02 2018

        *************************************************************
        *                                                           *
        *  Thank you very much for using Q-Chem.  Have a nice day.  *
        *                                                           *
        *************************************************************


*** MISSION COMPLETED -- STARFLEET OUT ***

0 sent ACK to 0 
now end server 0 ... 
