Process 0 of 1 is on qciep03 - thread support 0
initial socket setup ...start
initial socket setup ...done 
now start server 0 ... 
qciep03.tugraz.at 127.0.1
Q-Chem Developer Version! Running on 127.0.1.*
                  Welcome to Q-Chem
     A Quantum Leap Into The Future Of Chemistry


 Q-Chem 5.0, Q-Chem, Inc., Pleasanton, CA (2017)

 Yihan Shao,  Zhengting Gan,  E. Epifanovsky,  A. T. B. Gilbert,  M. Wormit,  
 J. Kussmann,  A. W. Lange,  A. Behn,  Jia Deng,  Xintian Feng,  D. Ghosh,  
 M. Goldey,  P. R. Horn,  L. D. Jacobson,  I. Kaliman,  T. Kus,  A. Landau,  
 Jie Liu,  E. I. Proynov,  R. M. Richard,  R. P. Steele,  E. J. Sundstrom,  
 H. L. Woodcock III,  P. M. Zimmerman,  D. Zuev,  B. Albrecht,  E. Alguire,  
 S. A. Baeppler,  D. Barton,  Z. Benda,  Y. A. Bernard,  E. J. Berquist,  
 K. B. Bravaya,  H. Burton,  D. Casanova,  Chun-Min Chang,  Yunqing Chen,  
 A. Chien,  K. D. Closser,  M. P. Coons,  S. Dasgupta,  A. L. Dempwolff,  
 M. Diedenhofen,  Hainam Do,  R. G. Edgar,  Po-Tung Fang,  S. Fatehi,  
 Qingguo Feng,  J. Fosso-Tande,  Qinghui Ge,  A. Ghysels,  G. Gidofalvi,  
 J. Gomes,  J. Gonthier,  A. Gunina,  M. W. D. Hanson-Heine,  
 P. H. P. Harbach,  A. W. Hauser,  J. E. Herr,  E. G. Hohenstein,  
 Z. C. Holden,  Kerwin Hui,  T.-C. Jagau,  Hyunjun Ji,  B. Kaduk,  
 K. Khistyaev,  Jaehoon Kim,  P. Klunzinger,  K. Koh,  D. Kosenkov,  
 L. Koulias,  T. Kowalczyk,  C. M. Krauter,  A. Kunitsa,  Ka Un Lao,  
 A. Laurent,  K. V. Lawler,  Joonho Lee,  D. Lefrancois,  S. Lehtola,  
 D. S. Levine,  Yi-Pei Li,  You-Sheng Lin,  Fenglai Liu,  E. Livshits,  
 A. Luenser,  P. Manohar,  E. Mansoor,  S. F. Manzer,  Shan-Ping Mao,  
 Yuezhi Mao,  N. Mardirossian,  A. V. Marenich,  T. Markovich,  
 L. A. Martinez-Martinez,  S. A. Maurer,  N. J. Mayhall,  S. C. McKenzie,  
 J.-M. Mewes,  A. F. Morrison,  J. W. Mullinax,  K. Nanda,  
 T. S. Nguyen-Beck,  R. Olivares-Amaya,  J. A. Parkhill,  T. M. Perrine,  
 F. Plasser,  S. Prager,  A. Prociuk,  E. Ramos,  D. R. Rehn,  F. Rob,  
 M. Schneider,  N. Sergueev,  S. M. Sharada,  S. Sharma,  D. W. Small,  
 T. Stauch,  T. Stein,  Yu-Chuan Su,  A. J. W. Thom,  A. Tkatchenko,  
 T. Tsuchimochi,  L. Vogt,  O. Vydrov,  M. A. Watson,  J. Wenzel,  
 M. de Wergifosse,  T. A. Wesolowski,  A. White,  J. Witte,  A. Yamada,  
 Jun Yang,  K. Yao,  S. Yeganeh,  S. R. Yost,  Zhi-Qiang You,  A. Zech,  
 Igor Ying Zhang,  Xing Zhang,  Yan Zhao,  Ying Zhu,  B. R. Brooks,  
 G. K. L. Chan,  C. J. Cramer,  M. S. Gordon,  W. J. Hehre,  A. Klamt,  
 M. W. Schmidt,  C. D. Sherrill,  D. G. Truhlar,  A. Aspuru-Guzik,  R. Baer,  
 A. T. Bell,  N. A. Besley,  Jeng-Da Chai,  R. A. DiStasio Jr.,  A. Dreuw,  
 B. D. Dunietz,  T. R. Furlani,  Chao-Ping Hsu,  Yousung Jung,  Jing Kong,  
 D. S. Lambrecht,  WanZhen Liang,  C. Ochsenfeld,  V. A. Rassolov,  
 L. V. Slipchenko,  J. E. Subotnik,  T. Van Voorhis,  J. M. Herbert,  
 A. I. Krylov,  P. M. W. Gill,  M. Head-Gordon

 Contributors to earlier versions of Q-Chem not listed above: 
 R. D. Adamson,  B. Austin,  J. Baker,  G. J. O. Beran,  K. Brandhorst,  
 S. T. Brown,  E. F. C. Byrd,  A. K. Chakraborty,  C.-L. Cheng,  
 Siu Hung Chien,  D. M. Chipman,  D. L. Crittenden,  H. Dachsel,  
 R. J. Doerksen,  A. D. Dutoi,  L. Fusti-Molnar,  W. A. Goddard III,  
 A. Golubeva-Zadorozhnaya,  S. R. Gwaltney,  G. Hawkins,  A. Heyden,  
 S. Hirata,  G. Kedziora,  F. J. Keil,  C. Kelley,  Jihan Kim,  R. A. King,  
 R. Z. Khaliullin,  P. P. Korambath,  W. Kurlancheek,  A. M. Lee,  M. S. Lee,  
 S. V. Levchenko,  Ching Yeh Lin,  D. Liotard,  R. C. Lochan,  I. Lotan,  
 P. E. Maslen,  N. Nair,  D. P. O'Neill,  D. Neuhauser,  E. Neuscamman,  
 C. M. Oana,  R. Olson,  B. Peters,  R. Peverati,  P. A. Pieniazek,  
 Y. M. Rhee,  J. Ritchie,  M. A. Rohrdanz,  E. Rosta,  N. J. Russ,  
 H. F. Schaefer III,  N. E. Schultz,  N. Shenvi,  A. C. Simmonett,  A. Sodt,  
 D. Stuck,  K. S. Thanthiriwatte,  V. Vanovschi,  Tao Wang,  A. Warshel,  
 C. F. Williams,  Q. Wu,  X. Xu,  W. Zhang

 Please cite Q-Chem as follows:
 Y. Shao et al., Mol. Phys. 113, 184-215 (2015)
 DOI: 10.1080/00268976.2014.952696

 Q-Chem 5.0.2 for Intel X86 EM64T Linux

 Parts of Q-Chem use Armadillo 5.200.1 (Boston Tea Smuggler).
 http://arma.sourceforge.net/

 Q-Chem begins on Thu Feb  1 11:53:15 2018  


Host: 0

     Scratch files written to /home/jcartus/scratch/30_CF3I-ben.dir//
 Using version located at /usr/local/qchem/bin/qchem

 Parallel job on  1  processors

Total Memory Limit in MB = 2000
Mega-Array Size in MB = 192

Checking the input file for inconsistencies... 	...done.
Finally everything over in PARseQInput

--------------------------------------------------------------
User input:
--------------------------------------------------------------
$rem
SCF_PRINT                     1
BASIS                         6-311++g**
SCF_SAVE_MATRICES             1
SCF_CONVERGENCE               5
SCF_FINAL_PRINT               1
METHOD                        hf
JOBTYPE                       sp
$end

$molecule
0 1
H    -0.034768801    0.294585208    0.057187563
C    -0.017014316    0.26196041    1.141050258
C    1.201240991    0.285824105    1.82004202
C    1.223051195    0.249206224    3.21325633
C    0.027949888    0.188858607    3.92796426
C    -1.189662929    0.164642236    3.250361662
C    -1.212924754    0.201264985    1.856906008
H    2.130707182    0.33262652    1.263780775
H    2.169947323    0.266273588    3.740739601
H    0.045570678    0.158814598    5.011482817
H    -2.118962097    0.116212797    3.806470317
H    -2.160018595    0.18369422    1.329378876
I    0.003414377    -3.215655817    1.72846281
C    0.106167253    -5.333396952    1.850723289
F    0.135277584    -5.877100968    0.636074544
F    1.202218878    -5.716996848    2.501577262
F    -0.950096543    -5.821924316    2.496892131
$end


--------------------------------------------------------------
 ----------------------------------------------------------------
             Standard Nuclear Orientation (Angstroms)
    I     Atom           X                Y                Z
 ----------------------------------------------------------------
    1      H       2.7169521817    -2.3535492704     0.3720171874
    2      C       2.8381246624    -1.2881888093     0.2093449442
    3      C       2.9403197140    -0.4231041619     1.2988081175
    4      C       3.1013556830     0.9454256640     1.0889124289
    5      C       3.1603784803     1.4495530258    -0.2091970837
    6      C       3.0580220303     0.5859811474    -1.2982698331
    7      C       2.8969777705    -0.7830299464    -1.0897647510
    8      H       2.8942271669    -0.8155626127     2.3084497770
    9      H       3.1792838039     1.6177605615     1.9356917194
   10      H       3.2840585223     2.5142004918    -0.3718458416
   11      H       3.1024801028     0.9785423739    -2.3077837526
   12      H       2.8185480471    -1.4553718734    -1.9367508561
   13      I      -0.5209510208    -0.2336681909    -0.0001360332
   14      C      -2.6012130831     0.1939332002     0.0001733450
   15      F      -3.3120578205    -0.9119936086     0.2086408365
   16      F      -2.9045318441     1.0669016387     0.9583031763
   17      F      -2.9777366985     0.7134223839    -1.1661230665
 ----------------------------------------------------------------
 Molecular Point Group                 C1    NOp =  1
 Largest Abelian Subgroup              C1    NOp =  1
 Nuclear Repulsion Energy =  1092.8606216347 hartrees
 There are       64 alpha and       64 beta electrons
 Requested basis set is 6-311++G(d,p)
 There are 114 shells and 324 basis functions

 Total QAlloc Memory Limit   2000 MB
 Mega-Array Size       188 MB
 MEM_STATIC part       192 MB

finished with qalloc call
 Job number = 2, Threshold = 1.00E-08
Integral type ranges set in mkLRange.C for JobNum: 2  <1-21|1-21>
Symmetry turned off temporarily
 Using the largest function pair in Schwarz integrals
Total number of integrals generated =          629005
Symmetry turned back on
 A cutoff of  1.0D-08 yielded   4555 shell pairs
 There are     36694 function pairs (     39805 Cartesian)
 Job number = 11, Threshold = 1.00E-08
Integral type ranges set in mkLRange.C for JobNum: 11  <1-21|22-22>
Total number of integrals generated =          670837
 Smallest overlap matrix eigenvalue = 1.04E-06

 Q-Chem warning in module /usr/local/qchem/stvman/mkSTV.C, line 295:

 Overlap eigenvalue is smaller than square root of threshold

 Multipole matrices computed through 2nd order

 Scale SEOQF with 1.000000e-01/1.000000e-01/1.000000e-01

 Standard Electronic Orientation quadrupole field applied
 Nucleus-field energy     =     0.0000000222 hartrees
 ENuRep (before)= 1092.8606216347
 ENucField = 0.0000000222
 ENuRep (after) = 1092.8606216569
 Guess from superposition of atomic densities
 Warning:  Energy on first SCF cycle will be non-variational
 SAD guess density has 128.000000 electrons

 ==================================================
    GEN_SCFMAN: A general SCF calculation manager  
                                                   
    Authors:                                       
        -- Eric Jon Sundstrom 2008-2014            
        -- Paul Horn 2010-2015                     
        -- Yuezhi Mao 2012-                        
        -- Dmitri Zuev 2014                        
        -- Alec White 2015-                        
        -- David Stuck 2015                        
        -- Shaama M.S. 2015                        
        -- Shane Yost 2015-                         
        -- Joonho Lee 2016-                        
        -- David Small 2016-                       
        -- Daniel Levine 2016-                     
        -- Susi Lehtola 2017-                      
        -- Hugh Burton 2017-                       
 ==================================================
 Hartree-Fock
Finding J and K together
 Job number = 22, Threshold = 1.00E-08
Integral type ranges set in mkLRange.C for JobNum: 22  <1-21|1-21>
 MakeJK  time:  CPU      17.73 s  wall      18.19 s
 HF Exchange:              -243.44682243475447
 One-Electron:             -12463.11730108928350
 Total Coulomb:            4126.61015951602894
 Nuclear repulsion:        1092.86062165689805
 A restricted SCF calculation will be
 performed using DIIS
 SCF converges when DIIS error is below 1.0e-05
 ---------------------------------------
  Cycle       Energy         DIIS error
 ---------------------------------------
Finding J and K together
 Job number = 22, Threshold = 1.00E-08
Integral type ranges set in mkLRange.C for JobNum: 22  <1-21|1-21>
 MakeJK  time:  CPU      78.42 s  wall      84.71 s
 HF Exchange:              -242.50961760972618
 One-Electron:             -12461.51262581627998
 Total Coulomb:            4127.57616339461038
 Nuclear repulsion:        1092.86062165689805
    1   -7487.0933423511      3.44e-02  
Finding J and K together
 Job number = 22, Threshold = 1.00E-08
Integral type ranges set in mkLRange.C for JobNum: 22  <1-21|1-21>
 MakeJK  time:  CPU      80.04 s  wall      85.83 s
 HF Exchange:              -242.36082640701073
 One-Electron:             -12464.17609416317646
 Total Coulomb:            4129.92286611810414
 Nuclear repulsion:        1092.86062165689805
    2   -7483.5854583745      4.36e-03  
Finding J and K together
 Job number = 22, Threshold = 1.00E-08
Integral type ranges set in mkLRange.C for JobNum: 22  <1-21|1-21>
 MakeJK  time:  CPU      83.04 s  wall      86.55 s
 HF Exchange:              -242.57623152314522
 One-Electron:             -12464.95922043280916
 Total Coulomb:            4130.84208516426679
 Nuclear repulsion:        1092.86062165689805
    3   -7483.7534327952      2.92e-03  
Finding J and K together
 Job number = 22, Threshold = 1.00E-08
Integral type ranges set in mkLRange.C for JobNum: 22  <1-21|1-21>
 MakeJK  time:  CPU      82.72 s  wall      86.91 s
 HF Exchange:              -242.54730751326932
 One-Electron:             -12464.21712078136079
 Total Coulomb:            4130.06811319337066
 Nuclear repulsion:        1092.86062165689805
    4   -7483.8327451348      3.76e-04  
Finding J and K together
 Job number = 22, Threshold = 1.00E-08
Integral type ranges set in mkLRange.C for JobNum: 22  <1-21|1-21>
 MakeJK  time:  CPU      81.08 s  wall      83.42 s
 HF Exchange:              -242.57068683324584
 One-Electron:             -12464.56259919466902
 Total Coulomb:            4130.43676505846361
 Nuclear repulsion:        1092.86062165689805
    5   -7483.8356934444      1.28e-04  
Finding J and K together
 Job number = 22, Threshold = 1.00E-08
Integral type ranges set in mkLRange.C for JobNum: 22  <1-21|1-21>
 MakeJK  time:  CPU      80.58 s  wall      91.37 s
 HF Exchange:              -242.57080438396929
 One-Electron:             -12464.54003557090255
 Total Coulomb:            4130.41429133486236
 Nuclear repulsion:        1092.86062165689805
    6   -7483.8358993126      3.13e-05  
Finding J and K together
 Job number = 22, Threshold = 1.00E-08
Integral type ranges set in mkLRange.C for JobNum: 22  <1-21|1-21>
 MakeJK  time:  CPU      81.78 s  wall      87.38 s
 HF Exchange:              -242.57081006834511
 One-Electron:             -12464.53372071844387
 Total Coulomb:            4130.40797786754047
 Nuclear repulsion:        1092.86062165689805
    7   -7483.8359269631      1.11e-05  
    8   -7483.8359312624      4.69e-06  Convergence criterion met
 ---------------------------------------
 SCF time:   CPU 592.15s  wall 632.00s 
 Total energy in the final basis set =    -7483.8359312624
 HF Exchange:              -242.57081006834511
 One-Electron:             -12464.53372071844387
 Total Coulomb:            4130.40797786754047
 Nuclear repulsion:        1092.86062165689805
Wall  1 = 633
Clock 1 = 592.82678222656250
 ==================================================
                  Done GEN_SCFMAN                  
 ==================================================

Symmetry turned off temporarily

 --------------------------------------------------------------

                    Orbital Energies (a.u.)
 --------------------------------------------------------------

 Alpha MOs
 -- Occupied --
*******-180.886-169.693-169.692-169.692 -37.940 -33.129 -33.124
-33.124 -26.359 -26.359 -26.359 -24.313 -24.311 -24.311 -24.307
-24.307 -11.551 -11.251 -11.250 -11.250 -11.249 -11.249 -11.248
 -7.258  -5.492  -5.479  -5.479  -2.416  -2.410  -2.410  -2.395
 -2.395  -1.756  -1.657  -1.657  -1.166  -1.029  -1.029  -1.007
 -0.901  -0.845  -0.845  -0.837  -0.837  -0.766  -0.727  -0.727
 -0.722  -0.682  -0.682  -0.665  -0.655  -0.633  -0.601  -0.601
 -0.532  -0.507  -0.507  -0.493  -0.400  -0.398  -0.349  -0.347
 -- Virtual --
  0.039   0.046   0.046   0.063   0.063   0.075   0.086   0.096
  0.097   0.099   0.116   0.116   0.124   0.141   0.155   0.156
  0.157   0.175   0.175   0.177   0.177   0.184   0.199   0.203
  0.205   0.208   0.208   0.213   0.217   0.224   0.244   0.246
  0.247   0.262   0.267   0.300   0.308   0.311   0.319   0.321
  0.348   0.352   0.356   0.365   0.371   0.372   0.397   0.400
  0.400   0.420   0.421   0.422   0.433   0.439   0.441   0.444
  0.467   0.479   0.486   0.488   0.497   0.502   0.505   0.506
  0.510   0.526   0.567   0.594   0.618   0.626   0.637   0.703
  0.706   0.717   0.732   0.732   0.742   0.744   0.745   0.750
  0.758   0.760   0.805   0.810   0.852   0.865   0.874   0.911
  0.914   0.926   0.933   0.936   0.942   0.944   1.000   1.010
  1.028   1.040   1.053   1.056   1.095   1.119   1.121   1.123
  1.196   1.203   1.207   1.219   1.236   1.320   1.327   1.377
  1.377   1.381   1.385   1.500   1.502   1.512   1.546   1.585
  1.661   1.667   1.673   1.680   1.683   1.684   1.701   1.717
  1.718   1.774   1.779   1.779   1.815   1.829   1.835   1.852
  1.898   1.898   1.920   1.926   1.952   2.019   2.047   2.053
  2.092   2.093   2.100   2.101   2.118   2.181   2.182   2.226
  2.229   2.229   2.239   2.249   2.285   2.335   2.335   2.364
  2.366   2.366   2.626   2.650   2.732   2.732   2.757   2.808
  2.808   2.949   2.949   2.984   2.997   3.031   3.034   3.043
  3.045   3.065   3.083   3.138   3.188   3.197   3.252   3.272
  3.272   3.282   3.282   3.314   3.315   3.468   3.536   3.764
  3.765   3.896   3.900   3.921   4.064   4.125   4.156   4.156
  4.159   4.180   4.185   4.185   4.277   4.277   4.394   4.394
  4.484   4.510   4.515   4.553   4.565   4.565   4.613   4.622
  4.631   4.631   4.757   4.783   4.879   5.265   5.368   5.368
  6.592   6.594   6.770   6.872   6.874   6.944   6.953   6.956
  6.959   7.029   7.370   7.371  24.556  24.751  25.127  25.128
 25.246  25.247  25.358  28.935  29.579  29.580  29.718  29.882
 29.884  29.924  29.926  30.020  68.702  68.702  68.755 130.625
130.626 130.741 154.3201912.240
 --------------------------------------------------------------

          Ground-State Mulliken Net Atomic Charges

     Atom                 Charge (a.u.)
  ----------------------------------------
      1 H                     0.205807
      2 C                    -0.272258
      3 C                    -0.183596
      4 C                    -0.191259
      5 C                    -0.219077
      6 C                    -0.174587
      7 C                    -0.211984
      8 H                     0.207923
      9 H                     0.208160
     10 H                     0.205430
     11 H                     0.209182
     12 H                     0.206702
     13 I                     0.201392
     14 C                     0.194157
     15 F                    -0.128773
     16 F                    -0.128540
     17 F                    -0.128680
  ----------------------------------------
  Sum of atomic charges =    -0.000000

 -----------------------------------------------------------------
                    Cartesian Multipole Moments
 -----------------------------------------------------------------
    Charge (ESU x 10^10)
                -0.0000
    Dipole Moment (Debye)
         X       2.2768      Y      -0.1270      Z      -0.0002
       Tot       2.2804
    Quadrupole Moments (Debye-Ang)
        XX     -92.3674     XY       1.2219     YY     -82.1393
        XZ       0.0041     YZ      -0.0006     ZZ     -82.0648
    Octopole Moments (Debye-Ang^2)
       XXX    -117.8351    XXY       4.4302    XYY     -14.6683
       YYY      -2.8330    XXZ      -0.0101    XYZ      -0.1374
       YYZ      -0.6787    XZZ     -15.1306    YZZ      -2.5683
       ZZZ       0.7055
    Hexadecapole Moments (Debye-Ang^3)
      XXXX   -3460.7269   XXXY      12.2609   XXYY    -575.3264
      XYYY      -0.8500   YYYY    -404.6752   XXXZ       0.3282
      XXYZ       0.8005   XYYZ       1.8753   YYYZ      -0.5228
      XXZZ    -572.2183   XYZZ       4.4672   YYZZ    -133.3890
      XZZZ      -2.0129   YZZZ       0.1766   ZZZZ    -390.4261
 -----------------------------------------------------------------
 Mayer SCF Bond Order, atomic valence on the diagonal:

            1           2           3           4           5           6
    1   0.9404216   0.7971497   0.0755974  -0.0240869   0.0085161  -0.0237407
    2   0.7971497   4.4704460   1.7909361  -0.0689786   0.0664909  -0.0625816
    3   0.0755974   1.7909361   4.3947833   1.8160163  -0.1082025   0.0487442
    4  -0.0240869  -0.0689786   1.8160163   4.3969506   1.8460913  -0.0931919
    5   0.0085161   0.0664909  -0.1082025   1.8460913   4.5029430   1.8414541
    6  -0.0237407  -0.0625816   0.0487442  -0.0931919   1.8414541   4.3625632
    7   0.0763405   1.7941771  -0.0670125   0.0531885  -0.1029118   1.8032707
    8   0.0097039   0.0794278   0.7828207   0.0818095  -0.0248944   0.0083159
    9   0.0006232  -0.0239498   0.0851206   0.7744336   0.0895970  -0.0275080
   10  -0.0000244   0.0118039  -0.0276532   0.0903037   0.7718728   0.0893861
   11   0.0006230  -0.0226160   0.0099158  -0.0267744   0.0877199   0.7764195
   12   0.0097441   0.0793151  -0.0218068   0.0082178  -0.0245642   0.0794578
   13   0.0075685  -0.0148929   0.0277354  -0.0586946   0.0466583  -0.0697582
   14   0.0024146   0.0417376  -0.0103117  -0.0099528   0.0133263  -0.0172972
   15   0.0003799   0.0017243  -0.0059078   0.0057161  -0.0034020   0.0071998
   16  -0.0001690   0.0000092  -0.0050857   0.0031843  -0.0023973  -0.0006432
   17  -0.0002183   0.0006933   0.0038771  -0.0003312  -0.0024114   0.0030359
            7           8           9          10          11          12
    1   0.0763405   0.0097039   0.0006232  -0.0000244   0.0006230   0.0097441
    2   1.7941771   0.0794278  -0.0239498   0.0118039  -0.0226160   0.0793151
    3  -0.0670125   0.7828207   0.0851206  -0.0276532   0.0099158  -0.0218068
    4   0.0531885   0.0818095   0.7744336   0.0903037  -0.0267744   0.0082178
    5  -0.1029118  -0.0248944   0.0895970   0.7718728   0.0877199  -0.0245642
    6   1.8032707   0.0083159  -0.0275080   0.0893861   0.7764195   0.0794578
    7   4.4306873  -0.0212088   0.0107348  -0.0269761   0.0827194   0.7865490
    8  -0.0212088   0.9313489   0.0101448   0.0006039  -0.0000290   0.0006278
    9   0.0107348   0.0101448   0.9275767   0.0106121   0.0005702  -0.0000309
   10  -0.0269761   0.0006039   0.0106121   0.9320140   0.0105305   0.0006186
   11   0.0827194  -0.0000290   0.0005702   0.0105305   0.9261807   0.0099458
   12   0.7865490   0.0006278  -0.0000309   0.0006186   0.0099458   0.9354339
   13   0.0473575   0.0050815  -0.0022227   0.0010528  -0.0020104   0.0077068
   14   0.0036744  -0.0013863  -0.0008935  -0.0001188  -0.0012459  -0.0006182
   15  -0.0074924  -0.0001110   0.0002188   0.0001948   0.0003081  -0.0001589
   16   0.0041068  -0.0001635   0.0001710  -0.0001003  -0.0000426   0.0005411
   17  -0.0058296   0.0006061  -0.0000444  -0.0000924   0.0001468  -0.0001111
           13          14          15          16          17
    1   0.0075685   0.0024146   0.0003799  -0.0001690  -0.0002183
    2  -0.0148929   0.0417376   0.0017243   0.0000092   0.0006933
    3   0.0277354  -0.0103117  -0.0059078  -0.0050857   0.0038771
    4  -0.0586946  -0.0099528   0.0057161   0.0031843  -0.0003312
    5   0.0466583   0.0133263  -0.0034020  -0.0023973  -0.0024114
    6  -0.0697582  -0.0172972   0.0071998  -0.0006432   0.0030359
    7   0.0473575   0.0036744  -0.0074924   0.0041068  -0.0058296
    8   0.0050815  -0.0013863  -0.0001110  -0.0001635   0.0006061
    9  -0.0022227  -0.0008935   0.0002188   0.0001710  -0.0000444
   10   0.0010528  -0.0001188   0.0001948  -0.0001003  -0.0000924
   11  -0.0020104  -0.0012459   0.0003081  -0.0000426   0.0001468
   12   0.0077068  -0.0006182  -0.0001589   0.0005411  -0.0001111
   13   1.0302468   1.2636540  -0.0775012  -0.0757215  -0.0757664
   14   1.2636540   4.1097502   0.9407216   0.9431737   0.9428725
   15  -0.0775012   0.9407216   0.9007235   0.0193545   0.0194790
   16  -0.0757215   0.9431737   0.0193545   0.9052422   0.0190248
   17  -0.0757664   0.9428725   0.0194790   0.0190248   0.9049306


 JobOver = TRUE
Archival summary:
1\1\qciep03\SP\HF\BasisUnspecified\1376\jcartus\ThuFeb112:03:502018ThuFeb112:03:502018\0\\#,HF,BasisUnspecified,\\0,1\I\C,1,2.12375\F,2,1.3311,1,110.844\F,2,1.33112,1,110.825,3,-120.013,0\F,2,1.3312,1,110.814,3,120.007,0\C,1,3.52694,2,173.262,3,-20.8485,0\H,6,1.0845,1,101.315,2,22.1948,0\C,6,1.3949,1,86.0284,2,-97.6411,0\H,8,1.08422,6,119.981,1,100.513,0\C,8,1.39387,6,119.984,1,-79.474,0\H,10,1.08404,8,119.975,6,179.909,0\C,10,1.39381,8,120.017,6,-0.00476976,0\H,12,1.08408,10,119.985,8,179.903,0\C,12,1.39367,10,120.037,8,0.0207914,0\H,14,1.08407,12,120.02,10,179.909,0\C,14,1.39413,12,120.006,10,-0.0230968,0\H,16,1.08424,14,120.03,12,-179.924,0\\HF=-7483.83593\\@

 Total job time:  634.77s(wall), 594.52s(cpu) 
 Thu Feb  1 12:03:50 2018

        *************************************************************
        *                                                           *
        *  Thank you very much for using Q-Chem.  Have a nice day.  *
        *                                                           *
        *************************************************************


*** MISSION COMPLETED -- STARFLEET OUT ***

0 sent ACK to 0 
now end server 0 ... 
