Process 0 of 1 is on qciep03 - thread support 0
initial socket setup ...start
initial socket setup ...done 
now start server 0 ... 
qciep03.tugraz.at 127.0.1
Q-Chem Developer Version! Running on 127.0.1.*
                  Welcome to Q-Chem
     A Quantum Leap Into The Future Of Chemistry


 Q-Chem 5.0, Q-Chem, Inc., Pleasanton, CA (2017)

 Yihan Shao,  Zhengting Gan,  E. Epifanovsky,  A. T. B. Gilbert,  M. Wormit,  
 J. Kussmann,  A. W. Lange,  A. Behn,  Jia Deng,  Xintian Feng,  D. Ghosh,  
 M. Goldey,  P. R. Horn,  L. D. Jacobson,  I. Kaliman,  T. Kus,  A. Landau,  
 Jie Liu,  E. I. Proynov,  R. M. Richard,  R. P. Steele,  E. J. Sundstrom,  
 H. L. Woodcock III,  P. M. Zimmerman,  D. Zuev,  B. Albrecht,  E. Alguire,  
 S. A. Baeppler,  D. Barton,  Z. Benda,  Y. A. Bernard,  E. J. Berquist,  
 K. B. Bravaya,  H. Burton,  D. Casanova,  Chun-Min Chang,  Yunqing Chen,  
 A. Chien,  K. D. Closser,  M. P. Coons,  S. Dasgupta,  A. L. Dempwolff,  
 M. Diedenhofen,  Hainam Do,  R. G. Edgar,  Po-Tung Fang,  S. Fatehi,  
 Qingguo Feng,  J. Fosso-Tande,  Qinghui Ge,  A. Ghysels,  G. Gidofalvi,  
 J. Gomes,  J. Gonthier,  A. Gunina,  M. W. D. Hanson-Heine,  
 P. H. P. Harbach,  A. W. Hauser,  J. E. Herr,  E. G. Hohenstein,  
 Z. C. Holden,  Kerwin Hui,  T.-C. Jagau,  Hyunjun Ji,  B. Kaduk,  
 K. Khistyaev,  Jaehoon Kim,  P. Klunzinger,  K. Koh,  D. Kosenkov,  
 L. Koulias,  T. Kowalczyk,  C. M. Krauter,  A. Kunitsa,  Ka Un Lao,  
 A. Laurent,  K. V. Lawler,  Joonho Lee,  D. Lefrancois,  S. Lehtola,  
 D. S. Levine,  Yi-Pei Li,  You-Sheng Lin,  Fenglai Liu,  E. Livshits,  
 A. Luenser,  P. Manohar,  E. Mansoor,  S. F. Manzer,  Shan-Ping Mao,  
 Yuezhi Mao,  N. Mardirossian,  A. V. Marenich,  T. Markovich,  
 L. A. Martinez-Martinez,  S. A. Maurer,  N. J. Mayhall,  S. C. McKenzie,  
 J.-M. Mewes,  A. F. Morrison,  J. W. Mullinax,  K. Nanda,  
 T. S. Nguyen-Beck,  R. Olivares-Amaya,  J. A. Parkhill,  T. M. Perrine,  
 F. Plasser,  S. Prager,  A. Prociuk,  E. Ramos,  D. R. Rehn,  F. Rob,  
 M. Schneider,  N. Sergueev,  S. M. Sharada,  S. Sharma,  D. W. Small,  
 T. Stauch,  T. Stein,  Yu-Chuan Su,  A. J. W. Thom,  A. Tkatchenko,  
 T. Tsuchimochi,  L. Vogt,  O. Vydrov,  M. A. Watson,  J. Wenzel,  
 M. de Wergifosse,  T. A. Wesolowski,  A. White,  J. Witte,  A. Yamada,  
 Jun Yang,  K. Yao,  S. Yeganeh,  S. R. Yost,  Zhi-Qiang You,  A. Zech,  
 Igor Ying Zhang,  Xing Zhang,  Yan Zhao,  Ying Zhu,  B. R. Brooks,  
 G. K. L. Chan,  C. J. Cramer,  M. S. Gordon,  W. J. Hehre,  A. Klamt,  
 M. W. Schmidt,  C. D. Sherrill,  D. G. Truhlar,  A. Aspuru-Guzik,  R. Baer,  
 A. T. Bell,  N. A. Besley,  Jeng-Da Chai,  R. A. DiStasio Jr.,  A. Dreuw,  
 B. D. Dunietz,  T. R. Furlani,  Chao-Ping Hsu,  Yousung Jung,  Jing Kong,  
 D. S. Lambrecht,  WanZhen Liang,  C. Ochsenfeld,  V. A. Rassolov,  
 L. V. Slipchenko,  J. E. Subotnik,  T. Van Voorhis,  J. M. Herbert,  
 A. I. Krylov,  P. M. W. Gill,  M. Head-Gordon

 Contributors to earlier versions of Q-Chem not listed above: 
 R. D. Adamson,  B. Austin,  J. Baker,  G. J. O. Beran,  K. Brandhorst,  
 S. T. Brown,  E. F. C. Byrd,  A. K. Chakraborty,  C.-L. Cheng,  
 Siu Hung Chien,  D. M. Chipman,  D. L. Crittenden,  H. Dachsel,  
 R. J. Doerksen,  A. D. Dutoi,  L. Fusti-Molnar,  W. A. Goddard III,  
 A. Golubeva-Zadorozhnaya,  S. R. Gwaltney,  G. Hawkins,  A. Heyden,  
 S. Hirata,  G. Kedziora,  F. J. Keil,  C. Kelley,  Jihan Kim,  R. A. King,  
 R. Z. Khaliullin,  P. P. Korambath,  W. Kurlancheek,  A. M. Lee,  M. S. Lee,  
 S. V. Levchenko,  Ching Yeh Lin,  D. Liotard,  R. C. Lochan,  I. Lotan,  
 P. E. Maslen,  N. Nair,  D. P. O'Neill,  D. Neuhauser,  E. Neuscamman,  
 C. M. Oana,  R. Olson,  B. Peters,  R. Peverati,  P. A. Pieniazek,  
 Y. M. Rhee,  J. Ritchie,  M. A. Rohrdanz,  E. Rosta,  N. J. Russ,  
 H. F. Schaefer III,  N. E. Schultz,  N. Shenvi,  A. C. Simmonett,  A. Sodt,  
 D. Stuck,  K. S. Thanthiriwatte,  V. Vanovschi,  Tao Wang,  A. Warshel,  
 C. F. Williams,  Q. Wu,  X. Xu,  W. Zhang

 Please cite Q-Chem as follows:
 Y. Shao et al., Mol. Phys. 113, 184-215 (2015)
 DOI: 10.1080/00268976.2014.952696

 Q-Chem 5.0.2 for Intel X86 EM64T Linux

 Parts of Q-Chem use Armadillo 5.200.1 (Boston Tea Smuggler).
 http://arma.sourceforge.net/

 Q-Chem begins on Thu Feb  1 11:56:22 2018  


Host: 0

     Scratch files written to /home/jcartus/scratch/22_benCl-Nm3.dir//
 Using version located at /usr/local/qchem/bin/qchem

 Parallel job on  1  processors

Total Memory Limit in MB = 2000
Mega-Array Size in MB = 192

Checking the input file for inconsistencies... 	...done.
Finally everything over in PARseQInput

--------------------------------------------------------------
User input:
--------------------------------------------------------------
$rem
SCF_PRINT                     1
BASIS                         6-311++g**
SCF_SAVE_MATRICES             1
SCF_CONVERGENCE               5
SCF_FINAL_PRINT               1
METHOD                        hf
JOBTYPE                       sp
$end

$molecule
0 1
C    -0.235164025    0.002086093    0.13275518
C    -0.238177601    0.001189285    1.52560369
C    0.955845752    -0.002137887    2.242723198
C    2.165456711    -0.004625136    1.552251769
C    2.182877035    -0.003791485    0.15897686
C    0.981045016    -0.000426079    -0.546038572
Cl    -1.748955125    0.004260493    2.378483547
H    0.930822557    -0.002763332    3.32293354
H    3.093652555    -0.007217456    2.107162249
H    3.124112655    -0.005745788    -0.372313104
H    0.985592531    0.000253534    -1.627466794
H    -1.172880264    0.004699747    -0.404018294
N    -4.403627858    0.003356033    3.894349635
C    -5.231717639    -1.074213794    3.388785172
C    -4.114028146    -0.203131337    5.300014813
C    -5.064999881    1.279020449    3.699967776
H    -5.027240949    -0.220059996    5.916981022
H    -3.593998232    -1.150520809    5.432395658
H    -3.470363412    0.596298264    5.663509601
H    -6.026502925    1.337441715    4.235674271
H    -4.424188201    2.08313245    4.058008348
H    -5.254102781    1.436696713    2.639380767
H    -6.201675997    -1.135411517    3.908711233
H    -5.421511216    -0.924313435    2.327182075
H    -4.715155972    -2.024330412    3.514793112
$end


--------------------------------------------------------------
 ----------------------------------------------------------------
             Standard Nuclear Orientation (Angstroms)
    I     Atom           X                Y                Z
 ----------------------------------------------------------------
    1      C       2.2857535760    -1.2131891069    -0.0009780745
    2      C       1.5949907413    -0.0036920874    -0.0017017812
    3      C       2.2788170881     1.2097097863    -0.0008976446
    4      C       3.6716221180     1.2070094672     0.0006865205
    5      C       4.3751213257     0.0042595302     0.0014535325
    6      C       3.6785257856    -1.2024766572     0.0006080719
    7      Cl     -0.1398967371    -0.0085822724    -0.0036339710
    8      H       1.7233785903     2.1365154026    -0.0014969311
    9      H       4.2044695475     2.1480477771     0.0013204938
   10      H       5.4559479317     0.0073637823     0.0026981339
   11      H       4.2167637648    -2.1404573007     0.0011835321
   12      H       1.7356681373    -2.1431621759    -0.0016410917
   13      N      -3.1968705595    -0.0021904614    -0.0007481785
   14      C      -3.6663583903    -0.8490188837     1.0785792249
   15      C      -3.6394245996     1.3633682303     0.2036900781
   16      C      -3.6766837275    -0.5001287559    -1.2752495480
   17      H      -4.7382037548     1.4486305677     0.2211888840
   18      H      -3.2520806348     1.7370084584     1.1501890185
   19      H      -3.2599100907     1.9960374273    -0.5970713485
   20      H      -4.7773502599    -0.5095029998    -1.3329375428
   21      H      -3.2969581217     0.1263808052    -2.0806829746
   22      H      -3.3172103583    -1.5159317912    -1.4314212644
   23      H      -4.7665018767    -0.8760856940     1.1405403692
   24      H      -3.3069784460    -1.8660332549     0.9301855614
   25      H      -3.2788794846    -0.4826282799     2.0278176395
 ----------------------------------------------------------------
 Molecular Point Group                 C1    NOp =  1
 Largest Abelian Subgroup              C1    NOp =  1
 Nuclear Repulsion Energy =   648.8326081180 hartrees
 There are       46 alpha and       46 beta electrons
 Requested basis set is 6-311++G(d,p)
 There are 143 shells and 348 basis functions

 Total QAlloc Memory Limit   2000 MB
 Mega-Array Size       188 MB
 MEM_STATIC part       192 MB

finished with qalloc call
 Job number = 2, Threshold = 1.00E-08
Integral type ranges set in mkLRange.C for JobNum: 2  <1-21|1-21>
Symmetry turned off temporarily
 Using the largest function pair in Schwarz integrals
Total number of integrals generated =          583851
Symmetry turned back on
 A cutoff of  1.0D-08 yielded   7174 shell pairs
 There are     42451 function pairs (     44931 Cartesian)
 Job number = 11, Threshold = 1.00E-08
Integral type ranges set in mkLRange.C for JobNum: 11  <1-21|22-22>
Total number of integrals generated =         1123075
 Smallest overlap matrix eigenvalue = 8.81E-07

 Q-Chem warning in module /usr/local/qchem/stvman/mkSTV.C, line 295:

 Overlap eigenvalue is smaller than square root of threshold

 Linear dependence detected in AO basis
 Number of orthogonalized atomic orbitals = 347
 Maximum deviation from orthogonality = 1.868E-10
 Multipole matrices computed through 2nd order

 Scale SEOQF with 1.000000e-02/1.000000e-01/1.000000e-01

 Standard Electronic Orientation quadrupole field applied
 Nucleus-field energy     =     0.0000000057 hartrees
 ENuRep (before)= 648.8326081180
 ENucField = 0.0000000057
 ENuRep (after) = 648.8326081238
 Guess from superposition of atomic densities
 Warning:  Energy on first SCF cycle will be non-variational
 SAD guess density has 92.000000 electrons

 ==================================================
    GEN_SCFMAN: A general SCF calculation manager  
                                                   
    Authors:                                       
        -- Eric Jon Sundstrom 2008-2014            
        -- Paul Horn 2010-2015                     
        -- Yuezhi Mao 2012-                        
        -- Dmitri Zuev 2014                        
        -- Alec White 2015-                        
        -- David Stuck 2015                        
        -- Shaama M.S. 2015                        
        -- Shane Yost 2015-                         
        -- Joonho Lee 2016-                        
        -- David Small 2016-                       
        -- Daniel Levine 2016-                     
        -- Susi Lehtola 2017-                      
        -- Hugh Burton 2017-                       
 ==================================================
 Hartree-Fock
Finding J and K together
 Job number = 22, Threshold = 1.00E-08
Integral type ranges set in mkLRange.C for JobNum: 22  <1-21|1-21>
 MakeJK  time:  CPU      22.21 s  wall      23.68 s
 HF Exchange:              -87.13043419216557
 One-Electron:             -2460.75062166834869
 Total Coulomb:            1031.96988641282064
 Nuclear repulsion:        648.83260812377955
 A restricted SCF calculation will be
 performed using DIIS
 SCF converges when DIIS error is below 1.0e-05
 ---------------------------------------
  Cycle       Energy         DIIS error
 ---------------------------------------
Finding J and K together
 Job number = 22, Threshold = 1.00E-08
Integral type ranges set in mkLRange.C for JobNum: 22  <1-21|1-21>
 MakeJK  time:  CPU     118.60 s  wall     123.88 s
 HF Exchange:              -85.64708607267652
 One-Electron:             -2468.84229850419615
 Total Coulomb:            1042.78791222789209
 Nuclear repulsion:        648.83260812377955
    1    -867.0785613239      3.49e-02  
Finding J and K together
 Job number = 22, Threshold = 1.00E-08
Integral type ranges set in mkLRange.C for JobNum: 22  <1-21|1-21>
 MakeJK  time:  CPU     117.30 s  wall     124.65 s
 HF Exchange:              -85.83273592643400
 One-Electron:             -2469.17644598290144
 Total Coulomb:            1043.19643667585387
 Nuclear repulsion:        648.83260812377955
    2    -862.8688642252      2.41e-03  
Finding J and K together
 Job number = 22, Threshold = 1.00E-08
Integral type ranges set in mkLRange.C for JobNum: 22  <1-21|1-21>
 MakeJK  time:  CPU     120.26 s  wall     125.72 s
 HF Exchange:              -85.88590502582876
 One-Electron:             -2468.97431651909665
 Total Coulomb:            1043.03512357822638
 Nuclear repulsion:        648.83260812377955
    3    -862.9801371097      9.37e-04  
Finding J and K together
 Job number = 22, Threshold = 1.00E-08
Integral type ranges set in mkLRange.C for JobNum: 22  <1-21|1-21>
 MakeJK  time:  CPU     115.40 s  wall     126.65 s
 HF Exchange:              -85.89949304149881
 One-Electron:             -2469.17141333683185
 Total Coulomb:            1043.24183754955607
 Nuclear repulsion:        648.83260812377955
    4    -862.9924898429      4.72e-04  
Finding J and K together
 Job number = 22, Threshold = 1.00E-08
Integral type ranges set in mkLRange.C for JobNum: 22  <1-21|1-21>
 MakeJK  time:  CPU     120.07 s  wall     120.20 s
 HF Exchange:              -85.90043581580625
 One-Electron:             -2469.10823611697424
 Total Coulomb:            1043.17946561440499
 Nuclear repulsion:        648.83260812377955
    5    -862.9964607050      7.97e-05  
Finding J and K together
 Job number = 22, Threshold = 1.00E-08
Integral type ranges set in mkLRange.C for JobNum: 22  <1-21|1-21>
 MakeJK  time:  CPU     120.39 s  wall     123.13 s
 HF Exchange:              -85.90127924278440
 One-Electron:             -2469.11536700023771
 Total Coulomb:            1043.18742068011170
 Nuclear repulsion:        648.83260812377955
    6    -862.9965981946      2.44e-05  
    7    -862.9966174391      8.62e-06  Convergence criterion met
 ---------------------------------------
 SCF time:   CPU 741.78s  wall 776.00s 
 Total energy in the final basis set =     -862.9966174391
 HF Exchange:              -85.90127924278440
 One-Electron:             -2469.11536700023771
 Total Coulomb:            1043.18742068011170
 Nuclear repulsion:        648.83260812377955
Wall  1 = 776
Clock 1 = 742.23040771484375
 ==================================================
                  Done GEN_SCFMAN                  
 ==================================================

Symmetry turned off temporarily

 --------------------------------------------------------------

                    Orbital Energies (a.u.)
 --------------------------------------------------------------

 Alpha MOs
 -- Occupied --
******* -15.541 -11.297 -11.247 -11.247 -11.245 -11.245 -11.243
-11.236 -11.236 -11.236 -10.553  -8.021  -8.018  -8.018  -1.227
 -1.185  -1.113  -1.028  -0.991  -0.948  -0.948  -0.842  -0.816
 -0.805  -0.708  -0.648  -0.643  -0.639  -0.628  -0.628  -0.600
 -0.583  -0.542  -0.542  -0.536  -0.514  -0.512  -0.506  -0.497
 -0.497  -0.460  -0.443  -0.354  -0.347  -0.329
 -- Virtual --
  0.039   0.044   0.047   0.059   0.059   0.060   0.075   0.076
  0.085   0.086   0.094   0.099   0.105   0.107   0.109   0.119
  0.125   0.129   0.146   0.151   0.162   0.163   0.165   0.175
  0.179   0.182   0.184   0.184   0.188   0.194   0.196   0.198
  0.209   0.209   0.214   0.215   0.220   0.221   0.223   0.226
  0.228   0.230   0.237   0.247   0.250   0.255   0.257   0.266
  0.276   0.287   0.293   0.296   0.307   0.309   0.312   0.332
  0.339   0.344   0.346   0.350   0.354   0.362   0.370   0.380
  0.396   0.401   0.406   0.413   0.428   0.429   0.439   0.445
  0.452   0.471   0.477   0.480   0.484   0.492   0.500   0.523
  0.528   0.558   0.565   0.575   0.643   0.645   0.672   0.691
  0.709   0.710   0.722   0.728   0.730   0.735   0.736   0.740
  0.750   0.753   0.765   0.768   0.782   0.796   0.816   0.821
  0.824   0.834   0.851   0.863   0.868   0.879   0.881   0.884
  0.889   0.905   0.917   0.935   0.941   0.947   0.959   0.985
  0.999   1.009   1.028   1.034   1.041   1.062   1.068   1.069
  1.094   1.115   1.122   1.127   1.130   1.144   1.151   1.156
  1.199   1.205   1.217   1.221   1.229   1.235   1.237   1.242
  1.287   1.288   1.292   1.316   1.359   1.383   1.461   1.468
  1.485   1.505   1.519   1.587   1.594   1.597   1.719   1.727
  1.729   1.733   1.756   1.784   1.786   1.792   1.794   1.802
  1.828   1.835   1.844   1.850   1.855   1.861   1.904   1.913
  1.915   1.916   1.919   1.947   2.011   2.013   2.013   2.020
  2.022   2.036   2.049   2.066   2.107   2.135   2.146   2.146
  2.180   2.224   2.226   2.227   2.241   2.260   2.292   2.294
  2.295   2.335   2.343   2.362   2.373   2.387   2.392   2.407
  2.474   2.476   2.512   2.527   2.587   2.631   2.652   2.708
  2.749   2.773   2.775   2.790   2.803   2.811   2.834   2.839
  2.843   2.877   2.880   2.885   2.892   2.897   2.945   2.947
  2.953   2.961   2.983   3.004   3.014   3.018   3.023   3.028
  3.043   3.048   3.050   3.056   3.122   3.128   3.130   3.132
  3.185   3.195   3.211   3.216   3.246   3.252   3.287   3.289
  3.324   3.379   3.457   3.465   3.478   3.590   3.684   3.764
  3.802   3.907   3.927   3.970   3.985   4.038   4.171   4.181
  4.181   4.199   4.221   4.240   4.250   4.253   4.404   4.464
  4.561   4.566   4.807   5.270   5.392   5.392  10.618  24.714
 25.077  25.123  25.131  25.137  25.141  25.228  25.257  25.349
 26.881  27.171  27.838  36.972 219.493
 --------------------------------------------------------------

          Ground-State Mulliken Net Atomic Charges

     Atom                 Charge (a.u.)
  ----------------------------------------
      1 C                    -0.321574
      2 C                     0.031881
      3 C                    -0.368523
      4 C                    -0.238045
      5 C                    -0.538158
      6 C                    -0.253710
      7 Cl                    0.567609
      8 H                     0.227487
      9 H                     0.220344
     10 H                     0.181411
     11 H                     0.219022
     12 H                     0.229448
     13 N                     0.048430
     14 C                    -0.354205
     15 C                    -0.361955
     16 C                    -0.355930
     17 H                     0.112393
     18 H                     0.124408
     19 H                     0.122554
     20 H                     0.113614
     21 H                     0.121678
     22 H                     0.117925
     23 H                     0.113553
     24 H                     0.117541
     25 H                     0.122804
  ----------------------------------------
  Sum of atomic charges =    -0.000000

 -----------------------------------------------------------------
                    Cartesian Multipole Moments
 -----------------------------------------------------------------
    Charge (ESU x 10^10)
                -0.0000
    Dipole Moment (Debye)
         X       0.5537      Y       0.0186      Z       0.0053
       Tot       0.5541
    Quadrupole Moments (Debye-Ang)
        XX     -64.0881     XY      -0.0078     YY     -69.2791
        XZ       0.0066     YZ      -0.0002     ZZ     -79.2894
    Octopole Moments (Debye-Ang^2)
       XXX      21.7821    XXY      -0.1174    XYY       8.2281
       YYY      -1.0386    XXZ       0.0254    XYZ       0.0009
       YYZ      -0.4619    XZZ     -21.8856    YZZ       0.9061
       ZZZ       0.3977
    Hexadecapole Moments (Debye-Ang^3)
      XXXX   -4164.9671   XXXY       0.1924   XXYY    -769.9367
      XYYY       2.6588   YYYY    -466.1863   XXXZ       0.4106
      XXYZ       0.0068   XYYZ       1.1481   YYYZ       0.0263
      XXZZ    -836.1637   XYZZ      -2.1372   YYZZ    -132.7516
      XZZZ      -0.9217   YZZZ      -0.0237   ZZZZ    -253.1363
 -----------------------------------------------------------------
 Mayer SCF Bond Order, atomic valence on the diagonal:

            1           2           3           4           5           6
    1   4.4369728   1.5175128   0.1674018   0.0198487   0.0644154   1.4542259
    2   1.5175128   2.7632095   1.5302233   0.0185546   0.0840919   0.0395219
    3   0.1674018   1.5302233   4.5454479   1.4982657   0.0654393   0.0075299
    4   0.0198487   0.0185546   1.4982657   4.1282685   1.6265643  -0.0300416
    5   0.0644154   0.0840919   0.0654393   1.6265643   4.3888172   1.6212601
    6   1.4542259   0.0395219   0.0075299  -0.0300416   1.6212601   4.1240446
    7   0.3558772  -0.5341857   0.3939635   0.1477214  -0.0877726   0.1736650
    8   0.0227458   0.0145054   0.8750445  -0.0093245   0.0225358  -0.0229785
    9  -0.0125388   0.0223545  -0.0151523   0.8696352   0.0262788   0.0029802
   10  -0.0030413   0.0029865   0.0076264  -0.0060410   0.9429346   0.0001498
   11  -0.0288457   0.0319446  -0.0111166   0.0010648   0.0228472   0.8785298
   12   0.8690541   0.0244120   0.0265802  -0.0224931   0.0217248  -0.0168993
   13  -0.0016785   0.0253711   0.0049512   0.0086976  -0.0119813   0.0095621
   14  -0.0021224  -0.0077666   0.0041658   0.0056027  -0.0034328  -0.0001950
   15   0.0103871  -0.0015578  -0.0068090  -0.0001691  -0.0044829   0.0090844
   16  -0.0023971  -0.0084304   0.0019993   0.0042656  -0.0032626   0.0008964
   17   0.0022533  -0.0021146  -0.0013509   0.0005391  -0.0005601   0.0008076
   18   0.0011495   0.0043142  -0.0017210  -0.0004517   0.0001791  -0.0017353
   19  -0.0005037   0.0054496  -0.0010984  -0.0008621   0.0003551  -0.0017267
   20   0.0013391  -0.0010926  -0.0011216   0.0002310  -0.0006273   0.0004296
   21  -0.0017939  -0.0027911   0.0037839  -0.0018835   0.0007457   0.0008449
   22   0.0026008  -0.0005001  -0.0023124   0.0003951   0.0007699  -0.0014090
   23   0.0011770  -0.0014380  -0.0007760   0.0002324  -0.0006454   0.0005311
   24   0.0016352   0.0019672  -0.0026620  -0.0002573   0.0008340  -0.0014447
   25  -0.0017297  -0.0001231   0.0025932  -0.0018259   0.0006063   0.0004563
            7           8           9          10          11          12
    1   0.3558772   0.0227458  -0.0125388  -0.0030413  -0.0288457   0.8690541
    2  -0.5341857   0.0145054   0.0223545   0.0029865   0.0319446   0.0244120
    3   0.3939635   0.8750445  -0.0151523   0.0076264  -0.0111166   0.0265802
    4   0.1477214  -0.0093245   0.8696352  -0.0060410   0.0010648  -0.0224931
    5  -0.0877726   0.0225358   0.0262788   0.9429346   0.0228472   0.0217248
    6   0.1736650  -0.0229785   0.0029802   0.0001498   0.8785298  -0.0168993
    7   0.5125878  -0.0226744   0.0005620  -0.0028879  -0.0001311  -0.0254722
    8  -0.0226744   0.8836272  -0.0000922   0.0018544  -0.0004129   0.0025478
    9   0.0005620  -0.0000922   0.8963943   0.0002888   0.0010862  -0.0003138
   10  -0.0028879   0.0018544   0.0002888   0.9457761   0.0006970   0.0016180
   11  -0.0001311  -0.0004129   0.0010862   0.0006970   0.8960095  -0.0009309
   12  -0.0254722   0.0025478  -0.0003138   0.0016180  -0.0009309   0.8798264
   13   0.0073272   0.0005767   0.0007528  -0.0001393   0.0007447   0.0007002
   14   0.0247480   0.0005522   0.0002467  -0.0000586   0.0001511  -0.0007321
   15   0.0207188  -0.0012234   0.0002578  -0.0000374   0.0004066   0.0007494
   16   0.0225060   0.0004965   0.0002067  -0.0000676   0.0001384  -0.0004245
   17   0.0025864  -0.0001400   0.0000510  -0.0000211   0.0000548  -0.0000214
   18   0.0012185  -0.0002622   0.0000175  -0.0000164  -0.0000761   0.0000994
   19  -0.0030324  -0.0003210   0.0000177  -0.0000134  -0.0000738   0.0000453
   20   0.0015237   0.0000336   0.0000322  -0.0000104   0.0000164  -0.0000036
   21   0.0145203   0.0000785  -0.0001115  -0.0000098  -0.0000299   0.0000786
   22   0.0072737   0.0000006  -0.0000511  -0.0000067  -0.0000383  -0.0001858
   23   0.0018620   0.0000353   0.0000396  -0.0000130   0.0000211  -0.0000483
   24   0.0006024  -0.0000562  -0.0000597  -0.0000040  -0.0000133  -0.0002290
   25   0.0120682   0.0001056  -0.0000940  -0.0000112  -0.0000244  -0.0000295
           13          14          15          16          17          18
    1  -0.0016785  -0.0021224   0.0103871  -0.0023971   0.0022533   0.0011495
    2   0.0253711  -0.0077666  -0.0015578  -0.0084304  -0.0021146   0.0043142
    3   0.0049512   0.0041658  -0.0068090   0.0019993  -0.0013509  -0.0017210
    4   0.0086976   0.0056027  -0.0001691   0.0042656   0.0005391  -0.0004517
    5  -0.0119813  -0.0034328  -0.0044829  -0.0032626  -0.0005601   0.0001791
    6   0.0095621  -0.0001950   0.0090844   0.0008964   0.0008076  -0.0017353
    7   0.0073272   0.0247480   0.0207188   0.0225060   0.0025864   0.0012185
    8   0.0005767   0.0005522  -0.0012234   0.0004965  -0.0001400  -0.0002622
    9   0.0007528   0.0002467   0.0002578   0.0002067   0.0000510   0.0000175
   10  -0.0001393  -0.0000586  -0.0000374  -0.0000676  -0.0000211  -0.0000164
   11   0.0007447   0.0001511   0.0004066   0.0001384   0.0000548  -0.0000761
   12   0.0007002  -0.0007321   0.0007494  -0.0004245  -0.0000214   0.0000994
   13   2.1079820   0.7949529   0.7868052   0.7940534  -0.0166908  -0.0426579
   14   0.7949529   3.6134428  -0.1007034  -0.0921569  -0.0077340  -0.0075307
   15   0.7868052  -0.1007034   3.5916259  -0.1060541   0.9989678   1.0119168
   16   0.7940534  -0.0921569  -0.1060541   3.6045624  -0.0085892   0.0006722
   17  -0.0166908  -0.0077340   0.9989678  -0.0085892   0.9190962  -0.0311711
   18  -0.0426579  -0.0075307   1.0119168   0.0006722  -0.0311711   0.9313171
   19  -0.0419249  -0.0003432   1.0121338  -0.0059611  -0.0322561  -0.0135123
   20  -0.0170932  -0.0065566  -0.0079108   0.9951116   0.0057177   0.0000700
   21  -0.0455687   0.0031110  -0.0134987   1.0121316   0.0016402   0.0000478
   22  -0.0446082  -0.0072759   0.0020067   1.0088994  -0.0001724   0.0023186
   23  -0.0166799   0.9950364  -0.0077297  -0.0065829   0.0057175   0.0022633
   24  -0.0431488   1.0098895   0.0010677  -0.0056706  -0.0000395  -0.0003763
   25  -0.0443413   1.0115948  -0.0127000   0.0027823   0.0016216   0.0065612
           19          20          21          22          23          24
    1  -0.0005037   0.0013391  -0.0017939   0.0026008   0.0011770   0.0016352
    2   0.0054496  -0.0010926  -0.0027911  -0.0005001  -0.0014380   0.0019672
    3  -0.0010984  -0.0011216   0.0037839  -0.0023124  -0.0007760  -0.0026620
    4  -0.0008621   0.0002310  -0.0018835   0.0003951   0.0002324  -0.0002573
    5   0.0003551  -0.0006273   0.0007457   0.0007699  -0.0006454   0.0008340
    6  -0.0017267   0.0004296   0.0008449  -0.0014090   0.0005311  -0.0014447
    7  -0.0030324   0.0015237   0.0145203   0.0072737   0.0018620   0.0006024
    8  -0.0003210   0.0000336   0.0000785   0.0000006   0.0000353  -0.0000562
    9   0.0000177   0.0000322  -0.0001115  -0.0000511   0.0000396  -0.0000597
   10  -0.0000134  -0.0000104  -0.0000098  -0.0000067  -0.0000130  -0.0000040
   11  -0.0000738   0.0000164  -0.0000299  -0.0000383   0.0000211  -0.0000133
   12   0.0000453  -0.0000036   0.0000786  -0.0001858  -0.0000483  -0.0002290
   13  -0.0419249  -0.0170932  -0.0455687  -0.0446082  -0.0166799  -0.0431488
   14  -0.0003432  -0.0065566   0.0031110  -0.0072759   0.9950364   1.0098895
   15   1.0121338  -0.0079108  -0.0134987   0.0020067  -0.0077297   0.0010677
   16  -0.0059611   0.9951116   1.0121316   1.0088994  -0.0065829  -0.0056706
   17  -0.0322561   0.0057177   0.0016402  -0.0001724   0.0057175  -0.0000395
   18  -0.0135123   0.0000700   0.0000478   0.0023186   0.0022633  -0.0003763
   19   0.9259949   0.0022332   0.0055474  -0.0002396   0.0000015   0.0022337
   20   0.0022332   0.9164973  -0.0310215  -0.0326249   0.0060196   0.0021335
   21   0.0055474  -0.0310215   0.9377950  -0.0105190  -0.0003212   0.0000798
   22  -0.0002396  -0.0326249  -0.0105190   0.9307021   0.0019448   0.0042991
   23   0.0000015   0.0060196  -0.0003212   0.0019448   0.9164712  -0.0331081
   24   0.0022337   0.0021335   0.0000798   0.0042991  -0.0331081   0.9265801
   25  -0.0001537  -0.0003312   0.0027340   0.0001368  -0.0310677  -0.0110925
           25
    1  -0.0017297
    2  -0.0001231
    3   0.0025932
    4  -0.0018259
    5   0.0006063
    6   0.0004563
    7   0.0120682
    8   0.0001056
    9  -0.0000940
   10  -0.0000112
   11  -0.0000244
   12  -0.0000295
   13  -0.0443413
   14   1.0115948
   15  -0.0127000
   16   0.0027823
   17   0.0016216
   18   0.0065612
   19  -0.0001537
   20  -0.0003312
   21   0.0027340
   22   0.0001368
   23  -0.0310677
   24  -0.0110925
   25   0.9377361


 JobOver = TRUE
Archival summary:
1\1\qciep03\SP\HF\BasisUnspecified\l11914\jcartus\ThuFeb112:09:212018ThuFeb112:09:212018\0\\#,HF,BasisUnspecified,\\0,1\Cl\C,1,1.7349\C,2,1.39283,1,119.565\H,3,1.0805,2,119.662,1,-0.000810392,0\C,3,1.39281,2,119.293,1,179.998,0\H,5,1.08142,3,119.409,2,-180,0\C,2,1.39285,1,119.57,3,-180,0\H,7,1.08048,2,119.664,1,0.00094071,0\C,7,1.39281,2,119.291,1,-179.998,0\H,9,1.08144,7,119.408,2,180,0\C,9,1.39336,7,120.437,2,-0,0\H,11,1.08083,9,120.161,7,179.999,0\N,1,3.05698,2,179.695,3,-22.7377,0\C,13,1.44997,1,107.898,2,14.2366,0\H,14,1.08881,13,109.705,1,-59.2669,0\H,14,1.08882,13,109.704,1,59.726,0\H,14,1.10222,13,112.294,1,-179.775,0\C,13,1.44999,1,108.861,2,-105.421,0\H,18,1.08878,13,109.707,1,58.6599,0\H,18,1.0888,13,109.706,1,-60.3182,0\H,18,1.10222,13,112.294,1,179.182,0\C,13,1.45001,1,109.23,2,134.112,0\H,22,1.08877,13,109.707,1,-58.887,0\H,22,1.08879,13,109.707,1,60.0853,0\H,22,1.10222,13,112.294,1,-179.408,0\\HF=-862.996617\\@

 Total job time:  779.02s(wall), 744.66s(cpu) 
 Thu Feb  1 12:09:21 2018

        *************************************************************
        *                                                           *
        *  Thank you very much for using Q-Chem.  Have a nice day.  *
        *                                                           *
        *************************************************************


*** MISSION COMPLETED -- STARFLEET OUT ***

0 sent ACK to 0 
now end server 0 ... 
