Process 0 of 1 is on qciep03 - thread support 0
initial socket setup ...start
initial socket setup ...done 
now start server 0 ... 
qciep03.tugraz.at 127.0.1
Q-Chem Developer Version! Running on 127.0.1.*
                  Welcome to Q-Chem
     A Quantum Leap Into The Future Of Chemistry


 Q-Chem 5.0, Q-Chem, Inc., Pleasanton, CA (2017)

 Yihan Shao,  Zhengting Gan,  E. Epifanovsky,  A. T. B. Gilbert,  M. Wormit,  
 J. Kussmann,  A. W. Lange,  A. Behn,  Jia Deng,  Xintian Feng,  D. Ghosh,  
 M. Goldey,  P. R. Horn,  L. D. Jacobson,  I. Kaliman,  T. Kus,  A. Landau,  
 Jie Liu,  E. I. Proynov,  R. M. Richard,  R. P. Steele,  E. J. Sundstrom,  
 H. L. Woodcock III,  P. M. Zimmerman,  D. Zuev,  B. Albrecht,  E. Alguire,  
 S. A. Baeppler,  D. Barton,  Z. Benda,  Y. A. Bernard,  E. J. Berquist,  
 K. B. Bravaya,  H. Burton,  D. Casanova,  Chun-Min Chang,  Yunqing Chen,  
 A. Chien,  K. D. Closser,  M. P. Coons,  S. Dasgupta,  A. L. Dempwolff,  
 M. Diedenhofen,  Hainam Do,  R. G. Edgar,  Po-Tung Fang,  S. Fatehi,  
 Qingguo Feng,  J. Fosso-Tande,  Qinghui Ge,  A. Ghysels,  G. Gidofalvi,  
 J. Gomes,  J. Gonthier,  A. Gunina,  M. W. D. Hanson-Heine,  
 P. H. P. Harbach,  A. W. Hauser,  J. E. Herr,  E. G. Hohenstein,  
 Z. C. Holden,  Kerwin Hui,  T.-C. Jagau,  Hyunjun Ji,  B. Kaduk,  
 K. Khistyaev,  Jaehoon Kim,  P. Klunzinger,  K. Koh,  D. Kosenkov,  
 L. Koulias,  T. Kowalczyk,  C. M. Krauter,  A. Kunitsa,  Ka Un Lao,  
 A. Laurent,  K. V. Lawler,  Joonho Lee,  D. Lefrancois,  S. Lehtola,  
 D. S. Levine,  Yi-Pei Li,  You-Sheng Lin,  Fenglai Liu,  E. Livshits,  
 A. Luenser,  P. Manohar,  E. Mansoor,  S. F. Manzer,  Shan-Ping Mao,  
 Yuezhi Mao,  N. Mardirossian,  A. V. Marenich,  T. Markovich,  
 L. A. Martinez-Martinez,  S. A. Maurer,  N. J. Mayhall,  S. C. McKenzie,  
 J.-M. Mewes,  A. F. Morrison,  J. W. Mullinax,  K. Nanda,  
 T. S. Nguyen-Beck,  R. Olivares-Amaya,  J. A. Parkhill,  T. M. Perrine,  
 F. Plasser,  S. Prager,  A. Prociuk,  E. Ramos,  D. R. Rehn,  F. Rob,  
 M. Schneider,  N. Sergueev,  S. M. Sharada,  S. Sharma,  D. W. Small,  
 T. Stauch,  T. Stein,  Yu-Chuan Su,  A. J. W. Thom,  A. Tkatchenko,  
 T. Tsuchimochi,  L. Vogt,  O. Vydrov,  M. A. Watson,  J. Wenzel,  
 M. de Wergifosse,  T. A. Wesolowski,  A. White,  J. Witte,  A. Yamada,  
 Jun Yang,  K. Yao,  S. Yeganeh,  S. R. Yost,  Zhi-Qiang You,  A. Zech,  
 Igor Ying Zhang,  Xing Zhang,  Yan Zhao,  Ying Zhu,  B. R. Brooks,  
 G. K. L. Chan,  C. J. Cramer,  M. S. Gordon,  W. J. Hehre,  A. Klamt,  
 M. W. Schmidt,  C. D. Sherrill,  D. G. Truhlar,  A. Aspuru-Guzik,  R. Baer,  
 A. T. Bell,  N. A. Besley,  Jeng-Da Chai,  R. A. DiStasio Jr.,  A. Dreuw,  
 B. D. Dunietz,  T. R. Furlani,  Chao-Ping Hsu,  Yousung Jung,  Jing Kong,  
 D. S. Lambrecht,  WanZhen Liang,  C. Ochsenfeld,  V. A. Rassolov,  
 L. V. Slipchenko,  J. E. Subotnik,  T. Van Voorhis,  J. M. Herbert,  
 A. I. Krylov,  P. M. W. Gill,  M. Head-Gordon

 Contributors to earlier versions of Q-Chem not listed above: 
 R. D. Adamson,  B. Austin,  J. Baker,  G. J. O. Beran,  K. Brandhorst,  
 S. T. Brown,  E. F. C. Byrd,  A. K. Chakraborty,  C.-L. Cheng,  
 Siu Hung Chien,  D. M. Chipman,  D. L. Crittenden,  H. Dachsel,  
 R. J. Doerksen,  A. D. Dutoi,  L. Fusti-Molnar,  W. A. Goddard III,  
 A. Golubeva-Zadorozhnaya,  S. R. Gwaltney,  G. Hawkins,  A. Heyden,  
 S. Hirata,  G. Kedziora,  F. J. Keil,  C. Kelley,  Jihan Kim,  R. A. King,  
 R. Z. Khaliullin,  P. P. Korambath,  W. Kurlancheek,  A. M. Lee,  M. S. Lee,  
 S. V. Levchenko,  Ching Yeh Lin,  D. Liotard,  R. C. Lochan,  I. Lotan,  
 P. E. Maslen,  N. Nair,  D. P. O'Neill,  D. Neuhauser,  E. Neuscamman,  
 C. M. Oana,  R. Olson,  B. Peters,  R. Peverati,  P. A. Pieniazek,  
 Y. M. Rhee,  J. Ritchie,  M. A. Rohrdanz,  E. Rosta,  N. J. Russ,  
 H. F. Schaefer III,  N. E. Schultz,  N. Shenvi,  A. C. Simmonett,  A. Sodt,  
 D. Stuck,  K. S. Thanthiriwatte,  V. Vanovschi,  Tao Wang,  A. Warshel,  
 C. F. Williams,  Q. Wu,  X. Xu,  W. Zhang

 Please cite Q-Chem as follows:
 Y. Shao et al., Mol. Phys. 113, 184-215 (2015)
 DOI: 10.1080/00268976.2014.952696

 Q-Chem 5.0.2 for Intel X86 EM64T Linux

 Parts of Q-Chem use Armadillo 5.200.1 (Boston Tea Smuggler).
 http://arma.sourceforge.net/

 Q-Chem begins on Thu Feb  1 12:01:04 2018  


Host: 0

     Scratch files written to /home/jcartus/scratch/20_benBr-acetone_mono1.dir//
 Using version located at /usr/local/qchem/bin/qchem

 Parallel job on  1  processors

Total Memory Limit in MB = 2000
Mega-Array Size in MB = 192

Checking the input file for inconsistencies... 	...done.
Finally everything over in PARseQInput

--------------------------------------------------------------
User input:
--------------------------------------------------------------
$rem
SCF_PRINT                     1
BASIS                         6-311++g**
SCF_SAVE_MATRICES             1
SCF_CONVERGENCE               5
SCF_FINAL_PRINT               1
METHOD                        hf
JOBTYPE                       sp
$end

$molecule
0 1
C    1.2171198    8.6352e-05    -0.737292531
C    2.232687859    0.000174717    0.216499979
C    1.925210087    0.000130109    1.575499453
C    0.592512132    0.000178132    1.981957864
C    -0.433049194    7.025e-05    1.038766795
H    1.448302007    -2.0318e-05    -1.79278536
H    3.264633432    0.000102432    -0.107052277
H    2.717093974    -2.3151e-05    2.311239059
H    0.345707498    0.000109507    3.034933333
H    -1.468501456    -9.3207e-05    1.34757497
C    -0.111081725    -0.000108736    -0.316810844
Br    -1.493755973    -0.001747763    -1.606462802
$end


--------------------------------------------------------------
 ----------------------------------------------------------------
             Standard Nuclear Orientation (Angstroms)
    I     Atom           X                Y                Z
 ----------------------------------------------------------------
    1      C      -0.7764867238    -1.2114557191     0.0004862167
    2      C      -2.1697077517    -1.2056673001    -0.0000651901
    3      C      -2.8709383820    -0.0016334030    -0.0004263043
    4      C      -2.1727378927     1.2041062945    -0.0000521295
    5      C      -0.7794295778     1.2128866202     0.0004798672
    6      H      -0.2262818864    -2.1413938639     0.0006279538
    7      H      -2.7043326922    -2.1457597437    -0.0003872927
    8      H      -3.9518596145    -0.0029558415    -0.0010759536
    9      H      -2.7097949561     2.1428498614    -0.0003630835
   10      H      -0.2321895501     2.1445798348     0.0005719824
   11      C      -0.0911340933     0.0014811855     0.0006114134
   12      Br      1.7996304351     0.0001249624    -0.0001593385
 ----------------------------------------------------------------
 Molecular Point Group                 C1    NOp =  1
 Largest Abelian Subgroup              C1    NOp =  1
 Nuclear Repulsion Energy =   431.7390728712 hartrees
 There are       38 alpha and       38 beta electrons
 Requested basis set is 6-311++G(d,p)
 There are 80 shells and 215 basis functions

 Total QAlloc Memory Limit   2000 MB
 Mega-Array Size       188 MB
 MEM_STATIC part       192 MB

finished with qalloc call

                       Distance Matrix (Angstroms)
             C (  1)   C (  2)   C (  3)   C (  4)   C (  5)   H (  6)
   C (  2)  1.393233
   C (  3)  2.418760  1.393349
   C (  4)  2.790064  2.409775  1.393303
   C (  5)  2.424344  2.789673  2.418568  1.393336
   H (  6)  1.080514  2.156963  3.401879  3.870538  3.399584
   H (  7)  2.142315  1.081479  2.150590  3.391784  3.871144  2.478055
   H (  8)  3.397568  2.150019  1.080922  2.149947  3.397438  4.295678
   H (  9)  3.871569  3.391793  2.150529  1.081513  2.142695  4.952028
   H ( 10)  3.399887  3.870159  3.401357  2.156437  1.080520  4.285978
   C ( 11)  1.393171  2.403680  2.779806  2.404035  1.393289  2.147133
   Br( 12)  2.846807  4.148443  4.670569  4.150817  2.849972  2.947953
             H (  7)   H (  8)   H (  9)   H ( 10)   C ( 11)
   H (  8)  2.479502
   H (  9)  4.288613  2.479356
   H ( 10)  4.951617  4.295097  2.477606
   C ( 11)  3.382226  3.860728  3.382728  2.147736
   Br( 12)  4.989038  5.751491  4.992613  2.954146  1.890765

 Job number = 2, Threshold = 1.00E-08
Integral type ranges set in mkLRange.C for JobNum: 2  <1-21|1-21>
Symmetry turned off temporarily
 Using the largest function pair in Schwarz integrals
Total number of integrals generated =          339363
Symmetry turned back on
 A cutoff of  1.0D-08 yielded   2712 shell pairs
 There are     20451 function pairs (     22173 Cartesian)
 Job number = 11, Threshold = 1.00E-08
Integral type ranges set in mkLRange.C for JobNum: 11  <1-21|22-22>
Total number of integrals generated =          265560
 Smallest overlap matrix eigenvalue = 1.06E-06

 Q-Chem warning in module /usr/local/qchem/stvman/mkSTV.C, line 295:

 Overlap eigenvalue is smaller than square root of threshold

 Multipole matrices computed through 2nd order

 Scale SEOQF with 1.000000e-01/1.000000e-01/1.000000e-01

 Standard Electronic Orientation quadrupole field applied
 Nucleus-field energy     =     0.0000000130 hartrees
 ENuRep (before)= 431.7390728712
 ENucField = 0.0000000130
 ENuRep (after) = 431.7390728842
 Guess from superposition of atomic densities
 Warning:  Energy on first SCF cycle will be non-variational
 SAD guess density has 76.000000 electrons

 ==================================================
    GEN_SCFMAN: A general SCF calculation manager  
                                                   
    Authors:                                       
        -- Eric Jon Sundstrom 2008-2014            
        -- Paul Horn 2010-2015                     
        -- Yuezhi Mao 2012-                        
        -- Dmitri Zuev 2014                        
        -- Alec White 2015-                        
        -- David Stuck 2015                        
        -- Shaama M.S. 2015                        
        -- Shane Yost 2015-                         
        -- Joonho Lee 2016-                        
        -- David Small 2016-                       
        -- Daniel Levine 2016-                     
        -- Susi Lehtola 2017-                      
        -- Hugh Burton 2017-                       
 ==================================================
 Hartree-Fock
Finding J and K together
 Job number = 22, Threshold = 1.00E-08
Integral type ranges set in mkLRange.C for JobNum: 22  <1-21|1-21>
 MakeJK  time:  CPU      11.49 s  wall      12.15 s
 HF Exchange:              -123.59019744830270
 One-Electron:             -4747.35313758151005
 Total Coulomb:            1633.93795822616335
 Nuclear repulsion:        431.73907288418798
 A restricted SCF calculation will be
 performed using DIIS
 SCF converges when DIIS error is below 1.0e-05
 ---------------------------------------
  Cycle       Energy         DIIS error
 ---------------------------------------
Finding J and K together
 Job number = 22, Threshold = 1.00E-08
Integral type ranges set in mkLRange.C for JobNum: 22  <1-21|1-21>
 MakeJK  time:  CPU      36.35 s  wall      40.01 s
 HF Exchange:              -122.40719393800774
 One-Electron:             -4750.11940796048384
 Total Coulomb:            1638.32854654310381
 Nuclear repulsion:        431.73907288418798
    1   -2805.2663039195      4.43e-02  
Finding J and K together
 Job number = 22, Threshold = 1.00E-08
Integral type ranges set in mkLRange.C for JobNum: 22  <1-21|1-21>
 MakeJK  time:  CPU      35.84 s  wall      39.25 s
 HF Exchange:              -122.54312655017750
 One-Electron:             -4751.86605127455368
 Total Coulomb:            1640.14363397325997
 Nuclear repulsion:        431.73907288418798
    2   -2802.4589824712      3.06e-03  
Finding J and K together
 Job number = 22, Threshold = 1.00E-08
Integral type ranges set in mkLRange.C for JobNum: 22  <1-21|1-21>
 MakeJK  time:  CPU      36.30 s  wall      38.09 s
 HF Exchange:              -122.54286661231789
 One-Electron:             -4750.94160977664342
 Total Coulomb:            1639.20878050213105
 Nuclear repulsion:        431.73907288418798
    3   -2802.5264709673      1.39e-03  
Finding J and K together
 Job number = 22, Threshold = 1.00E-08
Integral type ranges set in mkLRange.C for JobNum: 22  <1-21|1-21>
 MakeJK  time:  CPU      35.30 s  wall      41.52 s
 HF Exchange:              -122.55317529017155
 One-Electron:             -4751.24976290228551
 Total Coulomb:            1639.52429136490196
 Nuclear repulsion:        431.73907288418798
    4   -2802.5366230026      6.31e-04  
Finding J and K together
 Job number = 22, Threshold = 1.00E-08
Integral type ranges set in mkLRange.C for JobNum: 22  <1-21|1-21>
 MakeJK  time:  CPU      35.72 s  wall      39.67 s
 HF Exchange:              -122.55570173062701
 One-Electron:             -4751.24900690030336
 Total Coulomb:            1639.52596525917784
 Nuclear repulsion:        431.73907288418798
    5   -2802.5395739434      1.11e-04  
Finding J and K together
 Job number = 22, Threshold = 1.00E-08
Integral type ranges set in mkLRange.C for JobNum: 22  <1-21|1-21>
 MakeJK  time:  CPU      36.12 s  wall      36.55 s
 HF Exchange:              -122.55524717633239
 One-Electron:             -4751.23023169207227
 Total Coulomb:            1639.50671862334048
 Nuclear repulsion:        431.73907288418798
    6   -2802.5396704876      3.58e-05  
Finding J and K together
 Job number = 22, Threshold = 1.00E-08
Integral type ranges set in mkLRange.C for JobNum: 22  <1-21|1-21>
 MakeJK  time:  CPU      36.25 s  wall      38.42 s
 HF Exchange:              -122.55558420959193
 One-Electron:             -4751.23573294153539
 Total Coulomb:            1639.51255386355410
 Nuclear repulsion:        431.73907288418798
    7   -2802.5396873609      1.28e-05  
    8   -2802.5396904034      5.34e-06  Convergence criterion met
 ---------------------------------------
 SCF time:   CPU 265.57s  wall 289.00s 
 Total energy in the final basis set =    -2802.5396904034
 HF Exchange:              -122.55558420959193
 One-Electron:             -4751.23573294153539
 Total Coulomb:            1639.51255386355410
 Nuclear repulsion:        431.73907288418798
Wall  1 = 289
Clock 1 = 265.83279418945312
 ==================================================
                  Done GEN_SCFMAN                  
 ==================================================

Symmetry turned off temporarily

 --------------------------------------------------------------

                    Orbital Energies (a.u.)
 --------------------------------------------------------------

 Alpha MOs
 -- Occupied --
******* -65.160 -58.520 -58.519 -58.519 -11.304 -11.256 -11.256
-11.254 -11.253 -11.250  -9.840  -7.454  -7.446  -7.446  -3.194
 -3.190  -3.189  -3.180  -3.180  -1.179  -1.076  -1.036  -0.977
 -0.849  -0.821  -0.714  -0.648  -0.647  -0.608  -0.578  -0.534
 -0.518  -0.496  -0.440  -0.417  -0.354  -0.335
 -- Virtual --
  0.038   0.047   0.053   0.069   0.073   0.088   0.093   0.097
  0.117   0.125   0.126   0.138   0.146   0.146   0.173   0.175
  0.176   0.181   0.182   0.190   0.203   0.207   0.207   0.208
  0.220   0.221   0.227   0.235   0.236   0.255   0.281   0.292
  0.300   0.318   0.321   0.327   0.347   0.357   0.400   0.410
  0.411   0.426   0.472   0.475   0.491   0.494   0.580   0.582
  0.601   0.616   0.638   0.710   0.717   0.718   0.724   0.729
  0.730   0.741   0.773   0.778   0.784   0.787   0.803   0.819
  0.857   0.880   0.920   0.920   0.927   0.935   0.949   0.989
  1.005   1.011   1.030   1.050   1.064   1.102   1.109   1.123
  1.125   1.183   1.201   1.204   1.230   1.275   1.294   1.308
  1.345   1.374   1.518   1.520   1.605   1.720   1.777   1.781
  1.811   1.821   1.828   1.881   1.902   1.906   1.943   1.992
  2.005   2.042   2.099   2.144   2.213   2.216   2.217   2.231
  2.240   2.265   2.318   2.343   2.348   2.349   2.365   2.437
  2.592   2.595   2.644   2.671   2.738   2.782   2.790   2.850
  2.951   2.972   2.993   3.006   3.027   3.038   3.044   3.066
  3.153   3.174   3.176   3.191   3.272   3.278   3.310   3.467
  3.528   3.557   3.756   3.780   3.896   3.912   4.022   4.165
  4.395   4.455   4.534   4.556   4.557   4.611   4.636   4.787
  4.966   5.261   7.365   8.228   8.341   8.420  24.682  25.075
 25.122  25.222  25.247  25.347  49.601 293.911 294.025 294.129
*******
 --------------------------------------------------------------

          Ground-State Mulliken Net Atomic Charges

     Atom                 Charge (a.u.)
  ----------------------------------------
      1 C                    -0.393960
      2 C                    -0.139448
      3 C                    -0.367795
      4 C                    -0.139708
      5 C                    -0.394606
      6 H                     0.257268
      7 H                     0.202983
      8 H                     0.207020
      9 H                     0.202973
     10 H                     0.257281
     11 C                     0.689009
     12 Br                   -0.381019
  ----------------------------------------
  Sum of atomic charges =     0.000000

 -----------------------------------------------------------------
                    Cartesian Multipole Moments
 -----------------------------------------------------------------
    Charge (ESU x 10^10)
                 0.0000
    Dipole Moment (Debye)
         X      -2.0344      Y      -0.0008      Z      -0.0007
       Tot       2.0344
    Quadrupole Moments (Debye-Ang)
        XX     -49.4740     XY      -0.0106     YY     -48.3964
        XZ       0.0034     YZ      -0.0001     ZZ     -58.7968
    Octopole Moments (Debye-Ang^2)
       XXX      41.2028    XXY      -0.0054    XYY      11.1955
       YYY       0.0087    XXZ      -0.0237    XYZ      -0.0001
       YYZ      -0.0022    XZZ      26.4302    YZZ       0.0004
       ZZZ      -0.0083
    Hexadecapole Moments (Debye-Ang^3)
      XXXX   -1018.7127   XXXY      -0.0770   XXYY    -224.5143
      XYYY      -0.0271   YYYY    -282.9905   XXXZ       0.0424
      XXYZ       0.0004   XYYZ       0.0070   YYYZ      -0.0005
      XXZZ    -223.8386   XYZZ       0.0002   YYZZ     -72.2301
      XZZZ      -0.0075   YZZZ      -0.0001   ZZZZ     -72.2702
 -----------------------------------------------------------------
 Mayer SCF Bond Order, atomic valence on the diagonal:

            1           2           3           4           5           6
    1   4.6437051   1.7132732   0.0481668  -0.0287197   0.2392327   0.6525621
    2   1.7132732   4.2988046   1.8833161  -0.1836388  -0.0291392   0.1434656
    3   0.0481668   1.8833161   4.7333584   1.8835142   0.0490404  -0.0422783
    4  -0.0287197  -0.1836388   1.8835142   4.2997646   1.7126799   0.0257261
    5   0.2392327  -0.0291392   0.0490404   1.7126799   4.6427438  -0.0394726
    6   0.6525621   0.1434656  -0.0422783   0.0257261  -0.0394726   0.8810851
    7  -0.0006638   0.8707167   0.0412105  -0.0057142  -0.0105941   0.0055939
    8  -0.0558852   0.1423938   0.7098949   0.1424715  -0.0558800   0.0001057
    9  -0.0105737  -0.0057770   0.0411373   0.8707235  -0.0006259  -0.0000434
   10  -0.0393897   0.0257941  -0.0425107   0.1433956   0.6513998  -0.0001799
   11   1.7910272  -0.3582401   0.1423641  -0.3576714   1.7924208   0.1492403
   12   0.3346751   0.0966402   0.0195030   0.0969977   0.3336820  -0.0136346
            7           8           9          10          11          12
    1  -0.0006638  -0.0558852  -0.0105737  -0.0393897   1.7910272   0.3346751
    2   0.8707167   0.1423938  -0.0057770   0.0257941  -0.3582401   0.0966402
    3   0.0412105   0.7098949   0.0411373  -0.0425107   0.1423641   0.0195030
    4  -0.0057142   0.1424715   0.8707235   0.1433956  -0.3576714   0.0969977
    5  -0.0105941  -0.0558800  -0.0006259   0.6513998   1.7924208   0.3336820
    6   0.0055939   0.0001057  -0.0000434  -0.0001799   0.1492403  -0.0136346
    7   0.9256297   0.0099657   0.0009228  -0.0000403   0.0109531   0.0032795
    8   0.0099657   0.9374161   0.0099722   0.0001044   0.0354805  -0.0012075
    9   0.0009228   0.0099722   0.9257042   0.0056053   0.0110919   0.0032712
   10  -0.0000403   0.0001044   0.0056053   0.8810630   0.1504205  -0.0135362
   11   0.0109531   0.0354805   0.0110919   0.1504205   3.3523031  -0.0147839
   12   0.0032795  -0.0012075   0.0032712  -0.0135362  -0.0147839   0.8448865


 JobOver = TRUE
Archival summary:
1\1\qciep03\SP\HF\BasisUnspecified\r165\jcartus\ThuFeb112:05:532018ThuFeb112:05:532018\0\\#,HF,BasisUnspecified,\\0,1\Br\C,1,1.89077\C,2,1.39317,1,119.427\H,3,1.08051,2,119.921,1,0.041355,0\C,3,1.39323,2,119.23,1,-179.947,0\H,5,1.08148,3,119.389,2,179.986,0\C,2,1.39329,1,119.645,3,-179.961,0\H,7,1.08052,2,119.967,1,-0.0387099,0\C,7,1.39334,2,119.243,1,179.948,0\H,9,1.08151,7,119.413,2,-179.987,0\C,9,1.3933,7,120.435,2,0.00105497,0\H,11,1.08092,9,120.144,7,-179.985,0\\HF=-2802.53969\\@

 Total job time:  289.73s(wall), 266.78s(cpu) 
 Thu Feb  1 12:05:53 2018

        *************************************************************
        *                                                           *
        *  Thank you very much for using Q-Chem.  Have a nice day.  *
        *                                                           *
        *************************************************************


*** MISSION COMPLETED -- STARFLEET OUT ***

0 sent ACK to 0 
now end server 0 ... 
