Process 0 of 1 is on qciep03 - thread support 0
initial socket setup ...start
initial socket setup ...done 
now start server 0 ... 
qciep03.tugraz.at 127.0.1
Q-Chem Developer Version! Running on 127.0.1.*
                  Welcome to Q-Chem
     A Quantum Leap Into The Future Of Chemistry


 Q-Chem 5.0, Q-Chem, Inc., Pleasanton, CA (2017)

 Yihan Shao,  Zhengting Gan,  E. Epifanovsky,  A. T. B. Gilbert,  M. Wormit,  
 J. Kussmann,  A. W. Lange,  A. Behn,  Jia Deng,  Xintian Feng,  D. Ghosh,  
 M. Goldey,  P. R. Horn,  L. D. Jacobson,  I. Kaliman,  T. Kus,  A. Landau,  
 Jie Liu,  E. I. Proynov,  R. M. Richard,  R. P. Steele,  E. J. Sundstrom,  
 H. L. Woodcock III,  P. M. Zimmerman,  D. Zuev,  B. Albrecht,  E. Alguire,  
 S. A. Baeppler,  D. Barton,  Z. Benda,  Y. A. Bernard,  E. J. Berquist,  
 K. B. Bravaya,  H. Burton,  D. Casanova,  Chun-Min Chang,  Yunqing Chen,  
 A. Chien,  K. D. Closser,  M. P. Coons,  S. Dasgupta,  A. L. Dempwolff,  
 M. Diedenhofen,  Hainam Do,  R. G. Edgar,  Po-Tung Fang,  S. Fatehi,  
 Qingguo Feng,  J. Fosso-Tande,  Qinghui Ge,  A. Ghysels,  G. Gidofalvi,  
 J. Gomes,  J. Gonthier,  A. Gunina,  M. W. D. Hanson-Heine,  
 P. H. P. Harbach,  A. W. Hauser,  J. E. Herr,  E. G. Hohenstein,  
 Z. C. Holden,  Kerwin Hui,  T.-C. Jagau,  Hyunjun Ji,  B. Kaduk,  
 K. Khistyaev,  Jaehoon Kim,  P. Klunzinger,  K. Koh,  D. Kosenkov,  
 L. Koulias,  T. Kowalczyk,  C. M. Krauter,  A. Kunitsa,  Ka Un Lao,  
 A. Laurent,  K. V. Lawler,  Joonho Lee,  D. Lefrancois,  S. Lehtola,  
 D. S. Levine,  Yi-Pei Li,  You-Sheng Lin,  Fenglai Liu,  E. Livshits,  
 A. Luenser,  P. Manohar,  E. Mansoor,  S. F. Manzer,  Shan-Ping Mao,  
 Yuezhi Mao,  N. Mardirossian,  A. V. Marenich,  T. Markovich,  
 L. A. Martinez-Martinez,  S. A. Maurer,  N. J. Mayhall,  S. C. McKenzie,  
 J.-M. Mewes,  A. F. Morrison,  J. W. Mullinax,  K. Nanda,  
 T. S. Nguyen-Beck,  R. Olivares-Amaya,  J. A. Parkhill,  T. M. Perrine,  
 F. Plasser,  S. Prager,  A. Prociuk,  E. Ramos,  D. R. Rehn,  F. Rob,  
 M. Schneider,  N. Sergueev,  S. M. Sharada,  S. Sharma,  D. W. Small,  
 T. Stauch,  T. Stein,  Yu-Chuan Su,  A. J. W. Thom,  A. Tkatchenko,  
 T. Tsuchimochi,  L. Vogt,  O. Vydrov,  M. A. Watson,  J. Wenzel,  
 M. de Wergifosse,  T. A. Wesolowski,  A. White,  J. Witte,  A. Yamada,  
 Jun Yang,  K. Yao,  S. Yeganeh,  S. R. Yost,  Zhi-Qiang You,  A. Zech,  
 Igor Ying Zhang,  Xing Zhang,  Yan Zhao,  Ying Zhu,  B. R. Brooks,  
 G. K. L. Chan,  C. J. Cramer,  M. S. Gordon,  W. J. Hehre,  A. Klamt,  
 M. W. Schmidt,  C. D. Sherrill,  D. G. Truhlar,  A. Aspuru-Guzik,  R. Baer,  
 A. T. Bell,  N. A. Besley,  Jeng-Da Chai,  R. A. DiStasio Jr.,  A. Dreuw,  
 B. D. Dunietz,  T. R. Furlani,  Chao-Ping Hsu,  Yousung Jung,  Jing Kong,  
 D. S. Lambrecht,  WanZhen Liang,  C. Ochsenfeld,  V. A. Rassolov,  
 L. V. Slipchenko,  J. E. Subotnik,  T. Van Voorhis,  J. M. Herbert,  
 A. I. Krylov,  P. M. W. Gill,  M. Head-Gordon

 Contributors to earlier versions of Q-Chem not listed above: 
 R. D. Adamson,  B. Austin,  J. Baker,  G. J. O. Beran,  K. Brandhorst,  
 S. T. Brown,  E. F. C. Byrd,  A. K. Chakraborty,  C.-L. Cheng,  
 Siu Hung Chien,  D. M. Chipman,  D. L. Crittenden,  H. Dachsel,  
 R. J. Doerksen,  A. D. Dutoi,  L. Fusti-Molnar,  W. A. Goddard III,  
 A. Golubeva-Zadorozhnaya,  S. R. Gwaltney,  G. Hawkins,  A. Heyden,  
 S. Hirata,  G. Kedziora,  F. J. Keil,  C. Kelley,  Jihan Kim,  R. A. King,  
 R. Z. Khaliullin,  P. P. Korambath,  W. Kurlancheek,  A. M. Lee,  M. S. Lee,  
 S. V. Levchenko,  Ching Yeh Lin,  D. Liotard,  R. C. Lochan,  I. Lotan,  
 P. E. Maslen,  N. Nair,  D. P. O'Neill,  D. Neuhauser,  E. Neuscamman,  
 C. M. Oana,  R. Olson,  B. Peters,  R. Peverati,  P. A. Pieniazek,  
 Y. M. Rhee,  J. Ritchie,  M. A. Rohrdanz,  E. Rosta,  N. J. Russ,  
 H. F. Schaefer III,  N. E. Schultz,  N. Shenvi,  A. C. Simmonett,  A. Sodt,  
 D. Stuck,  K. S. Thanthiriwatte,  V. Vanovschi,  Tao Wang,  A. Warshel,  
 C. F. Williams,  Q. Wu,  X. Xu,  W. Zhang

 Please cite Q-Chem as follows:
 Y. Shao et al., Mol. Phys. 113, 184-215 (2015)
 DOI: 10.1080/00268976.2014.952696

 Q-Chem 5.0.2 for Intel X86 EM64T Linux

 Parts of Q-Chem use Armadillo 5.200.1 (Boston Tea Smuggler).
 http://arma.sourceforge.net/

 Q-Chem begins on Thu Feb  1 11:58:57 2018  


Host: 0

     Scratch files written to /home/jcartus/scratch/28_CH3I-ben_mono2.dir//
 Using version located at /usr/local/qchem/bin/qchem

 Parallel job on  1  processors

Total Memory Limit in MB = 2000
Mega-Array Size in MB = 192

Checking the input file for inconsistencies... 	...done.
Finally everything over in PARseQInput

--------------------------------------------------------------
User input:
--------------------------------------------------------------
$rem
SCF_PRINT                     1
BASIS                         6-311++g**
SCF_SAVE_MATRICES             1
SCF_CONVERGENCE               5
SCF_FINAL_PRINT               1
METHOD                        hf
JOBTYPE                       sp
$end

$molecule
0 1
I    -0.205324409    -3.368518313    1.883768735
C    0.06919685    -5.471929013    1.872749216
H    0.07360107    -5.805636321    0.83982588
H    1.018048659    -5.689860688    2.352917164
H    -0.752874404    -5.922024645    2.420412903
$end


--------------------------------------------------------------
 ----------------------------------------------------------------
             Standard Nuclear Orientation (Angstroms)
    I     Atom           X                Y                Z
 ----------------------------------------------------------------
    1      I       0.3242226087     0.0000001766     0.0000042029
    2      C      -1.7970552901     0.0000143365     0.0000237781
    3      H      -2.1338801027     1.0298632555     0.0653753835
    4      H      -2.1334625012    -0.4582544173    -0.9247438502
    5      H      -2.1341239144    -0.5717042165     0.8590030429
 ----------------------------------------------------------------
 Molecular Point Group                 C1    NOp =  1
 Largest Abelian Subgroup              C1    NOp =  1
 Nuclear Repulsion Energy =   120.5533024270 hartrees
 There are       31 alpha and       31 beta electrons
 Requested basis set is 6-311++G(d,p)
 There are 45 shells and 105 basis functions

 Total QAlloc Memory Limit   2000 MB
 Mega-Array Size       188 MB
 MEM_STATIC part       192 MB

finished with qalloc call

                       Distance Matrix (Angstroms)
             I (  1)   C (  2)   H (  3)   H (  4)
   C (  2)  2.121278
   H (  3)  2.665926  1.085500
   H (  4)  2.665590  1.085530  1.787409
   H (  5)  2.666119  1.085506  1.787418  1.787351

 Job number = 2, Threshold = 1.00E-08
Integral type ranges set in mkLRange.C for JobNum: 2  <1-21|1-21>
Symmetry turned off temporarily
 Using the largest function pair in Schwarz integrals
Total number of integrals generated =           88700
Symmetry turned back on
 A cutoff of  1.0D-08 yielded    974 shell pairs
 There are      5530 function pairs (      6200 Cartesian)
 Job number = 11, Threshold = 1.00E-08
Integral type ranges set in mkLRange.C for JobNum: 11  <1-21|22-22>
Total number of integrals generated =           30455
 Smallest overlap matrix eigenvalue = 1.46E-03
 Multipole matrices computed through 2nd order

 Scale SEOQF with 1.000000e-01/1.000000e-01/1.000000e-01

 Standard Electronic Orientation quadrupole field applied
 Nucleus-field energy     =     0.0000000013 hartrees
 ENuRep (before)= 120.5533024270
 ENucField = 0.0000000013
 ENuRep (after) = 120.5533024283
 Guess from superposition of atomic densities
 Warning:  Energy on first SCF cycle will be non-variational
 SAD guess density has 62.000000 electrons

 ==================================================
    GEN_SCFMAN: A general SCF calculation manager  
                                                   
    Authors:                                       
        -- Eric Jon Sundstrom 2008-2014            
        -- Paul Horn 2010-2015                     
        -- Yuezhi Mao 2012-                        
        -- Dmitri Zuev 2014                        
        -- Alec White 2015-                        
        -- David Stuck 2015                        
        -- Shaama M.S. 2015                        
        -- Shane Yost 2015-                         
        -- Joonho Lee 2016-                        
        -- David Small 2016-                       
        -- Daniel Levine 2016-                     
        -- Susi Lehtola 2017-                      
        -- Hugh Burton 2017-                       
 ==================================================
 Hartree-Fock
Finding J and K together
 Job number = 22, Threshold = 1.00E-08
Integral type ranges set in mkLRange.C for JobNum: 22  <1-21|1-21>
 MakeJK  time:  CPU       2.57 s  wall       2.57 s
 HF Exchange:              -180.15707502956138
 One-Electron:             -9800.56925637811582
 Total Coulomb:            2903.54179215285058
 Nuclear repulsion:        120.55330242830919
 A restricted SCF calculation will be
 performed using DIIS
 SCF converges when DIIS error is below 1.0e-05
 ---------------------------------------
  Cycle       Energy         DIIS error
 ---------------------------------------
Finding J and K together
 Job number = 22, Threshold = 1.00E-08
Integral type ranges set in mkLRange.C for JobNum: 22  <1-21|1-21>
 MakeJK  time:  CPU       3.70 s  wall       3.74 s
 HF Exchange:              -180.00942372500910
 One-Electron:             -9799.86346653625515
 Total Coulomb:            2902.90119050452540
 Nuclear repulsion:        120.55330242830919
    1   -6956.6312368265      4.54e-02  
Finding J and K together
 Job number = 22, Threshold = 1.00E-08
Integral type ranges set in mkLRange.C for JobNum: 22  <1-21|1-21>
 MakeJK  time:  CPU       3.80 s  wall       3.81 s
 HF Exchange:              -180.13213955256165
 One-Electron:             -9801.47079897844378
 Total Coulomb:            2904.61417848906740
 Nuclear repulsion:        120.55330242830919
    2   -6956.4183973284      3.36e-03  
Finding J and K together
 Job number = 22, Threshold = 1.00E-08
Integral type ranges set in mkLRange.C for JobNum: 22  <1-21|1-21>
 MakeJK  time:  CPU       3.75 s  wall       3.75 s
 HF Exchange:              -180.10074595178264
 One-Electron:             -9800.98735250611389
 Total Coulomb:            2904.09667276039272
 Nuclear repulsion:        120.55330242830919
    3   -6956.4354576136      1.44e-03  
Finding J and K together
 Job number = 22, Threshold = 1.00E-08
Integral type ranges set in mkLRange.C for JobNum: 22  <1-21|1-21>
 MakeJK  time:  CPU       3.68 s  wall       4.22 s
 HF Exchange:              -180.10926008653760
 One-Electron:             -9800.99500224953408
 Total Coulomb:            2904.11249399142616
 Nuclear repulsion:        120.55330242830919
    4   -6956.4381232692      3.89e-04  
Finding J and K together
 Job number = 22, Threshold = 1.00E-08
Integral type ranges set in mkLRange.C for JobNum: 22  <1-21|1-21>
 MakeJK  time:  CPU       3.65 s  wall       3.81 s
 HF Exchange:              -180.11197008454670
 One-Electron:             -9801.05881658998806
 Total Coulomb:            2904.17900117455292
 Nuclear repulsion:        120.55330242830919
    5   -6956.4384659163      9.11e-05  
Finding J and K together
 Job number = 22, Threshold = 1.00E-08
Integral type ranges set in mkLRange.C for JobNum: 22  <1-21|1-21>
 MakeJK  time:  CPU       3.72 s  wall       3.88 s
 HF Exchange:              -180.11149495493100
 One-Electron:             -9801.03222709091278
 Total Coulomb:            2904.15193340329552
 Nuclear repulsion:        120.55330242830919
    6   -6956.4384830717      3.51e-05  
    7   -6956.4384862142      9.89e-06  Convergence criterion met
 ---------------------------------------
 SCF time:   CPU 25.15s  wall 26.00s 
 Total energy in the final basis set =    -6956.4384862142
 HF Exchange:              -180.11149495493100
 One-Electron:             -9801.03222709091278
 Total Coulomb:            2904.15193340329552
 Nuclear repulsion:        120.55330242830919
Wall  1 = 26
Clock 1 = 25.20573616027832
 ==================================================
                  Done GEN_SCFMAN                  
 ==================================================

Symmetry turned off temporarily

 --------------------------------------------------------------

                    Orbital Energies (a.u.)
 --------------------------------------------------------------

 Alpha MOs
 -- Occupied --
*******-180.854-169.660-169.659-169.659 -37.907 -33.095 -33.092
-33.092 -24.280 -24.278 -24.278 -24.274 -24.274 -11.283  -7.225
 -5.458  -5.447  -5.447  -2.381  -2.376  -2.376  -2.364  -2.364
 -0.999  -0.798  -0.608  -0.608  -0.469  -0.362  -0.362
 -- Virtual --
  0.035   0.072   0.072   0.103   0.129   0.151   0.151   0.195
  0.280   0.280   0.296   0.339   0.339   0.366   0.492   0.492
  0.568   0.603   0.603   0.671   0.695   0.695   0.829   0.839
  0.839   0.914   1.048   1.293   1.293   1.575   1.575   1.626
  1.678   1.783   1.783   1.871   1.968   1.968   2.198   2.430
  2.430   2.730   2.781   2.781   2.876   2.876   3.144   3.273
  4.101   4.101   4.508   4.508   4.577   4.577   4.769   4.871
  6.564   6.564   6.609  25.036  28.955  29.560  29.560  29.588
 29.900  29.900  29.928  29.928  30.034 130.619 130.619 130.648
154.3421912.261
 --------------------------------------------------------------

          Ground-State Mulliken Net Atomic Charges

     Atom                 Charge (a.u.)
  ----------------------------------------
      1 I                    -0.060723
      2 C                    -0.407057
      3 H                     0.155926
      4 H                     0.155925
      5 H                     0.155929
  ----------------------------------------
  Sum of atomic charges =     0.000000

 -----------------------------------------------------------------
                    Cartesian Multipole Moments
 -----------------------------------------------------------------
    Charge (ESU x 10^10)
                 0.0000
    Dipole Moment (Debye)
         X      -2.0897      Y      -0.0000      Z      -0.0002
       Tot       2.0897
    Quadrupole Moments (Debye-Ang)
        XX     -31.1885     XY      -0.0000     YY     -36.7880
        XZ      -0.0007     YZ      -0.0000     ZZ     -36.7884
    Octopole Moments (Debye-Ang^2)
       XXX      11.1497    XXY      -0.0001    XYY       1.9057
       YYY       0.8659    XXZ       0.0017    XYZ       0.0003
       YYZ       0.1668    XZZ       1.9065    YZZ      -0.8660
       ZZZ      -0.1676
    Hexadecapole Moments (Debye-Ang^3)
      XXXX    -209.7972   XXXY      -0.0004   XXYY     -43.3306
      XYYY      -1.8379   YYYY     -57.5553   XXXZ      -0.0089
      XXYZ      -0.0018   XYYZ      -0.3546   YYYZ      -0.0003
      XXZZ     -43.3330   XYZZ       1.8379   YYZZ     -19.1851
      XZZZ       0.3543   YZZZ       0.0004   ZZZZ     -57.5553
 -----------------------------------------------------------------
 Mayer SCF Bond Order, atomic valence on the diagonal:

            1           2           3           4           5
    1   0.9322853   0.9242232   0.0026903   0.0026790   0.0026928
    2   0.9242232   3.8047528   0.9601755   0.9601869   0.9601672
    3   0.0026903   0.9601755   0.9221859  -0.0203402  -0.0203397
    4   0.0026790   0.9601869  -0.0203402   0.9221826  -0.0203431
    5   0.0026928   0.9601672  -0.0203397  -0.0203431   0.9221772


 JobOver = TRUE
Archival summary:
1\1\qciep03\SP\HF\BasisUnspecified\113\jcartus\ThuFeb111:59:242018ThuFeb111:59:242018\0\\#,HF,BasisUnspecified,\\0,1\I\C,1,2.12128\H,2,1.0855,1,108.077\H,2,1.08551,1,108.091,3,-120.016,0\H,2,1.08553,1,108.053,3,119.992,0\\HF=-6956.43849\\@

 Total job time:  26.61s(wall), 25.50s(cpu) 
 Thu Feb  1 11:59:24 2018

        *************************************************************
        *                                                           *
        *  Thank you very much for using Q-Chem.  Have a nice day.  *
        *                                                           *
        *************************************************************


*** MISSION COMPLETED -- STARFLEET OUT ***

0 sent ACK to 0 
now end server 0 ... 
