Process 0 of 1 is on qciep03 - thread support 0
initial socket setup ...start
initial socket setup ...done 
now start server 0 ... 
qciep03.tugraz.at 127.0.1
Q-Chem Developer Version! Running on 127.0.1.*
                  Welcome to Q-Chem
     A Quantum Leap Into The Future Of Chemistry


 Q-Chem 5.0, Q-Chem, Inc., Pleasanton, CA (2017)

 Yihan Shao,  Zhengting Gan,  E. Epifanovsky,  A. T. B. Gilbert,  M. Wormit,  
 J. Kussmann,  A. W. Lange,  A. Behn,  Jia Deng,  Xintian Feng,  D. Ghosh,  
 M. Goldey,  P. R. Horn,  L. D. Jacobson,  I. Kaliman,  T. Kus,  A. Landau,  
 Jie Liu,  E. I. Proynov,  R. M. Richard,  R. P. Steele,  E. J. Sundstrom,  
 H. L. Woodcock III,  P. M. Zimmerman,  D. Zuev,  B. Albrecht,  E. Alguire,  
 S. A. Baeppler,  D. Barton,  Z. Benda,  Y. A. Bernard,  E. J. Berquist,  
 K. B. Bravaya,  H. Burton,  D. Casanova,  Chun-Min Chang,  Yunqing Chen,  
 A. Chien,  K. D. Closser,  M. P. Coons,  S. Dasgupta,  A. L. Dempwolff,  
 M. Diedenhofen,  Hainam Do,  R. G. Edgar,  Po-Tung Fang,  S. Fatehi,  
 Qingguo Feng,  J. Fosso-Tande,  Qinghui Ge,  A. Ghysels,  G. Gidofalvi,  
 J. Gomes,  J. Gonthier,  A. Gunina,  M. W. D. Hanson-Heine,  
 P. H. P. Harbach,  A. W. Hauser,  J. E. Herr,  E. G. Hohenstein,  
 Z. C. Holden,  Kerwin Hui,  T.-C. Jagau,  Hyunjun Ji,  B. Kaduk,  
 K. Khistyaev,  Jaehoon Kim,  P. Klunzinger,  K. Koh,  D. Kosenkov,  
 L. Koulias,  T. Kowalczyk,  C. M. Krauter,  A. Kunitsa,  Ka Un Lao,  
 A. Laurent,  K. V. Lawler,  Joonho Lee,  D. Lefrancois,  S. Lehtola,  
 D. S. Levine,  Yi-Pei Li,  You-Sheng Lin,  Fenglai Liu,  E. Livshits,  
 A. Luenser,  P. Manohar,  E. Mansoor,  S. F. Manzer,  Shan-Ping Mao,  
 Yuezhi Mao,  N. Mardirossian,  A. V. Marenich,  T. Markovich,  
 L. A. Martinez-Martinez,  S. A. Maurer,  N. J. Mayhall,  S. C. McKenzie,  
 J.-M. Mewes,  A. F. Morrison,  J. W. Mullinax,  K. Nanda,  
 T. S. Nguyen-Beck,  R. Olivares-Amaya,  J. A. Parkhill,  T. M. Perrine,  
 F. Plasser,  S. Prager,  A. Prociuk,  E. Ramos,  D. R. Rehn,  F. Rob,  
 M. Schneider,  N. Sergueev,  S. M. Sharada,  S. Sharma,  D. W. Small,  
 T. Stauch,  T. Stein,  Yu-Chuan Su,  A. J. W. Thom,  A. Tkatchenko,  
 T. Tsuchimochi,  L. Vogt,  O. Vydrov,  M. A. Watson,  J. Wenzel,  
 M. de Wergifosse,  T. A. Wesolowski,  A. White,  J. Witte,  A. Yamada,  
 Jun Yang,  K. Yao,  S. Yeganeh,  S. R. Yost,  Zhi-Qiang You,  A. Zech,  
 Igor Ying Zhang,  Xing Zhang,  Yan Zhao,  Ying Zhu,  B. R. Brooks,  
 G. K. L. Chan,  C. J. Cramer,  M. S. Gordon,  W. J. Hehre,  A. Klamt,  
 M. W. Schmidt,  C. D. Sherrill,  D. G. Truhlar,  A. Aspuru-Guzik,  R. Baer,  
 A. T. Bell,  N. A. Besley,  Jeng-Da Chai,  R. A. DiStasio Jr.,  A. Dreuw,  
 B. D. Dunietz,  T. R. Furlani,  Chao-Ping Hsu,  Yousung Jung,  Jing Kong,  
 D. S. Lambrecht,  WanZhen Liang,  C. Ochsenfeld,  V. A. Rassolov,  
 L. V. Slipchenko,  J. E. Subotnik,  T. Van Voorhis,  J. M. Herbert,  
 A. I. Krylov,  P. M. W. Gill,  M. Head-Gordon

 Contributors to earlier versions of Q-Chem not listed above: 
 R. D. Adamson,  B. Austin,  J. Baker,  G. J. O. Beran,  K. Brandhorst,  
 S. T. Brown,  E. F. C. Byrd,  A. K. Chakraborty,  C.-L. Cheng,  
 Siu Hung Chien,  D. M. Chipman,  D. L. Crittenden,  H. Dachsel,  
 R. J. Doerksen,  A. D. Dutoi,  L. Fusti-Molnar,  W. A. Goddard III,  
 A. Golubeva-Zadorozhnaya,  S. R. Gwaltney,  G. Hawkins,  A. Heyden,  
 S. Hirata,  G. Kedziora,  F. J. Keil,  C. Kelley,  Jihan Kim,  R. A. King,  
 R. Z. Khaliullin,  P. P. Korambath,  W. Kurlancheek,  A. M. Lee,  M. S. Lee,  
 S. V. Levchenko,  Ching Yeh Lin,  D. Liotard,  R. C. Lochan,  I. Lotan,  
 P. E. Maslen,  N. Nair,  D. P. O'Neill,  D. Neuhauser,  E. Neuscamman,  
 C. M. Oana,  R. Olson,  B. Peters,  R. Peverati,  P. A. Pieniazek,  
 Y. M. Rhee,  J. Ritchie,  M. A. Rohrdanz,  E. Rosta,  N. J. Russ,  
 H. F. Schaefer III,  N. E. Schultz,  N. Shenvi,  A. C. Simmonett,  A. Sodt,  
 D. Stuck,  K. S. Thanthiriwatte,  V. Vanovschi,  Tao Wang,  A. Warshel,  
 C. F. Williams,  Q. Wu,  X. Xu,  W. Zhang

 Please cite Q-Chem as follows:
 Y. Shao et al., Mol. Phys. 113, 184-215 (2015)
 DOI: 10.1080/00268976.2014.952696

 Q-Chem 5.0.2 for Intel X86 EM64T Linux

 Parts of Q-Chem use Armadillo 5.200.1 (Boston Tea Smuggler).
 http://arma.sourceforge.net/

 Q-Chem begins on Thu Jan 25 17:52:31 2018  


Host: 0

     Scratch files written to /home/jcartus/scratch/Benzene-dimer-parallel-displaced.dir//
 Using version located at /usr/local/qchem/bin/qchem

 Parallel job on  1  processors

Total Memory Limit in MB = 2000
Mega-Array Size in MB = 192

Checking the input file for inconsistencies... 	...done.
Finally everything over in PARseQInput

--------------------------------------------------------------
User input:
--------------------------------------------------------------
$rem
SCF_PRINT                     1
BASIS                         6-311++g**
SCF_SAVE_MATRICES             1
SCF_CONVERGENCE               5
SCF_FINAL_PRINT               1
METHOD                        hf
JOBTYPE                       sp
$end

$molecule
0 1
C    -1.0478252    -1.4216736    0.0
C    -1.4545034    -0.8554459    1.2062048
C    -1.4545034    -0.8554459    -1.2062048
C    -2.266797    0.277161    1.2069539
C    -2.6714781    0.8450211    0.0
C    -2.266797    0.277161    -1.2069539
H    -1.1338534    -1.2920593    -2.142315
H    -2.5824943    0.7163066    -2.1437977
H    -3.3030422    1.72327    0.0
H    -2.5824943    0.7163066    2.1437977
H    -1.1338534    -1.2920593    2.142315
H    -0.4060253    -2.2919049    0.0
C    1.0478252    1.4216736    0.0
C    1.4545034    0.8554459    -1.2062048
C    1.4545034    0.8554459    1.2062048
C    2.266797    -0.277161    -1.2069539
C    2.6714781    -0.8450211    0.0
C    2.266797    -0.277161    1.2069539
H    0.4060253    2.2919049    0.0
H    1.1338534    1.2920593    2.142315
H    2.5824943    -0.7163066    2.1437977
H    3.3030422    -1.72327    0.0
H    2.5824943    -0.7163066    -2.1437977
H    1.1338534    1.2920593    -2.142315
$end


--------------------------------------------------------------
 I,J,IOp=           1          13           2  D=   7.3163610909379393E-015 Fix sym
 I, IOp=           1           4  D=   7.3375081961688946E-015 Fix sym
 I,J,IOp=           2          15           2  D=   8.0550486934858573E-015 Fix sym
 I,J,IOp=           2          14           3  D=   0.0000000000000000      Fix sym
 I,J,IOp=           2           3           4  D=   8.0550486934858573E-015 Fix sym
 I,J,IOp=           4          18           2  D=   6.2488890859448035E-015 Fix sym
 I,J,IOp=           4          16           3  D=   0.0000000000000000      Fix sym
 I,J,IOp=           4           6           4  D=   6.2488890859448035E-015 Fix sym
 I,J,IOp=           5          17           2  D=   4.0481047575170899E-016 Fix sym
 I, IOp=           5           4  D=   4.0481047575170899E-016 Fix sym
 I,J,IOp=           7          24           2  D=   1.0986160316453369E-014 Fix sym
 I,J,IOp=           7          20           3  D=   0.0000000000000000      Fix sym
 I,J,IOp=           7          11           4  D=   1.0986160316453369E-014 Fix sym
 I,J,IOp=           8          23           2  D=   8.8484148209261429E-015 Fix sym
 I,J,IOp=           8          21           3  D=   0.0000000000000000      Fix sym
 I,J,IOp=           8          10           4  D=   8.8484148209261429E-015 Fix sym
 I,J,IOp=           9          22           2  D=   2.8249136680620107E-015 Fix sym
 I, IOp=           9           4  D=   2.8249136680620107E-015 Fix sym
 I,J,IOp=          12          19           2  D=   1.0281939744489555E-014 Fix sym
 I, IOp=          12           4  D=   1.0233875550239395E-014 Fix sym
 ----------------------------------------------------------------
             Standard Nuclear Orientation (Angstroms)
    I     Atom           X                Y                Z
 ----------------------------------------------------------------
    1      C      -1.0162960406    -1.4443807783     0.0000000000
    2      C      -1.4353323343    -0.8872366756     1.2062048000
    3      C      -1.4353323343    -0.8872366756    -1.2062048000
    4      C      -2.2723457119     0.2272263737     1.2069539000
    5      C      -2.6894213003     0.7860464158     0.0000000000
    6      C      -2.2723457119     0.2272263737    -1.2069539000
    7      H      -1.1051548221    -1.3166903914    -2.1423150000
    8      H      -2.5976274289     0.6593206317    -2.1437977000
    9      H      -3.3401532628     1.6501889132    -0.0000000000
   10      H      -2.5976274289     0.6593206317     2.1437977000
   11      H      -1.1051548221    -1.3166903914     2.1423150000
   12      H      -0.3555071354    -2.3002824373     0.0000000000
   13      C       1.0162960406     1.4443807783    -0.0000000000
   14      C       1.4353323343     0.8872366756    -1.2062048000
   15      C       1.4353323343     0.8872366756     1.2062048000
   16      C       2.2723457119    -0.2272263737    -1.2069539000
   17      C       2.6894213003    -0.7860464158    -0.0000000000
   18      C       2.2723457119    -0.2272263737     1.2069539000
   19      H       0.3555071354     2.3002824373    -0.0000000000
   20      H       1.1051548221     1.3166903914     2.1423150000
   21      H       2.5976274289    -0.6593206317     2.1437977000
   22      H       3.3401532628    -1.6501889132     0.0000000000
   23      H       2.5976274289    -0.6593206317    -2.1437977000
   24      H       1.1051548221     1.3166903914    -2.1423150000
 ----------------------------------------------------------------
 Molecular Point Group                 C2h   NOp =  4
 Largest Abelian Subgroup              C2h   NOp =  4
 Nuclear Repulsion Energy =   628.9720594639 hartrees
 There are       42 alpha and       42 beta electrons
 Requested basis set is 6-311++G(d,p)
 There are 132 shells and 348 basis functions

 Total QAlloc Memory Limit   2000 MB
 Mega-Array Size       188 MB
 MEM_STATIC part       192 MB

finished with qalloc call
 Job number = 2, Threshold = 1.00E-08
Integral type ranges set in mkLRange.C for JobNum: 2  <1-21|1-21>
Symmetry turned off temporarily
 Using the largest function pair in Schwarz integrals
Total number of integrals generated =          779647
Symmetry turned back on
 A cutoff of  1.0D-08 yielded   7079 shell pairs
 There are     50152 function pairs (     53467 Cartesian)
 Job number = 11, Threshold = 1.00E-08
Integral type ranges set in mkLRange.C for JobNum: 11  <1-21|22-22>
Total number of integrals generated =          363816
 Smallest overlap matrix eigenvalue = 6.14E-07

 Q-Chem warning in module /usr/local/qchem/stvman/mkSTV.C, line 295:

 Overlap eigenvalue is smaller than square root of threshold

 Linear dependence detected in AO basis
 Number of orthogonalized atomic orbitals = 346
 Maximum deviation from orthogonality = 2.720E-11
 Multipole matrices computed through 2nd order

 Scale SEOQF with 1.000000e-01/1.000000e-01/1.000000e-01

 Standard Electronic Orientation quadrupole field applied
 Nucleus-field energy     =     0.0000000058 hartrees
 ENuRep (before)= 628.9720594639
 ENucField = 0.0000000058
 ENuRep (after) = 628.9720594697
 Guess from superposition of atomic densities
 Warning:  Energy on first SCF cycle will be non-variational
 SAD guess density has 84.000000 electrons

 ==================================================
    GEN_SCFMAN: A general SCF calculation manager  
                                                   
    Authors:                                       
        -- Eric Jon Sundstrom 2008-2014            
        -- Paul Horn 2010-2015                     
        -- Yuezhi Mao 2012-                        
        -- Dmitri Zuev 2014                        
        -- Alec White 2015-                        
        -- David Stuck 2015                        
        -- Shaama M.S. 2015                        
        -- Shane Yost 2015-                         
        -- Joonho Lee 2016-                        
        -- David Small 2016-                       
        -- Daniel Levine 2016-                     
        -- Susi Lehtola 2017-                      
        -- Hugh Burton 2017-                       
 ==================================================
 Hartree-Fock
Finding J and K together
 Job number = 22, Threshold = 1.00E-08
Integral type ranges set in mkLRange.C for JobNum: 22  <1-21|1-21>
 MakeJK  time:  CPU       6.88 s  wall       6.95 s
 HF Exchange:              -68.32795456385132
 One-Electron:             -1861.85338994404697
 Total Coulomb:            834.67206510331653
 Nuclear repulsion:        628.97205946969154
 A restricted SCF calculation will be
 performed using DIIS
 SCF converges when DIIS error is below 1.0e-05
 ---------------------------------------
  Cycle       Energy         DIIS error
 ---------------------------------------
Finding J and K together
 Job number = 22, Threshold = 1.00E-08
Integral type ranges set in mkLRange.C for JobNum: 22  <1-21|1-21>
 MakeJK  time:  CPU      37.36 s  wall      37.66 s
 HF Exchange:              -66.34725582976769
 One-Electron:             -1872.26162647902697
 Total Coulomb:            848.26115700183686
 Nuclear repulsion:        628.97205946969154
    1    -466.5372199349      3.69e-02  
Finding J and K together
 Job number = 22, Threshold = 1.00E-08
Integral type ranges set in mkLRange.C for JobNum: 22  <1-21|1-21>
 MakeJK  time:  CPU      35.52 s  wall      35.56 s
 HF Exchange:              -66.43078371122978
 One-Electron:             -1870.09442047795710
 Total Coulomb:            846.05835699656404
 Nuclear repulsion:        628.97205946969154
    2    -461.3756658373      2.38e-03  
Finding J and K together
 Job number = 22, Threshold = 1.00E-08
Integral type ranges set in mkLRange.C for JobNum: 22  <1-21|1-21>
 MakeJK  time:  CPU      39.47 s  wall      39.62 s
 HF Exchange:              -66.54935380774269
 One-Electron:             -1871.81742608078707
 Total Coulomb:            847.89094283261716
 Nuclear repulsion:        628.97205946969154
    3    -461.4947877229      6.77e-04  
Finding J and K together
 Job number = 22, Threshold = 1.00E-08
Integral type ranges set in mkLRange.C for JobNum: 22  <1-21|1-21>
 MakeJK  time:  CPU      37.37 s  wall      37.44 s
 HF Exchange:              -66.52005822563805
 One-Electron:             -1871.05886311631139
 Total Coulomb:            847.10162039327258
 Nuclear repulsion:        628.97205946969154
    4    -461.5037775862      3.03e-04  
Finding J and K together
 Job number = 22, Threshold = 1.00E-08
Integral type ranges set in mkLRange.C for JobNum: 22  <1-21|1-21>
 MakeJK  time:  CPU      42.21 s  wall      42.32 s
 HF Exchange:              -66.52091545441021
 One-Electron:             -1871.07812593499921
 Total Coulomb:            847.12171318501771
 Nuclear repulsion:        628.97205946969154
    5    -461.5052414790      3.55e-05  
Finding J and K together
 Job number = 22, Threshold = 1.00E-08
Integral type ranges set in mkLRange.C for JobNum: 22  <1-21|1-21>
 MakeJK  time:  CPU      37.16 s  wall      37.27 s
 HF Exchange:              -66.52131994521193
 One-Electron:             -1871.07949307874719
 Total Coulomb:            847.12347947882699
 Nuclear repulsion:        628.97205946969154
    6    -461.5052687347      1.58e-05  
    7    -461.5052740754      3.21e-06  Convergence criterion met
 ---------------------------------------
 SCF time:   CPU 242.07s  wall 243.00s 
 Total energy in the final basis set =     -461.5052740754
 HF Exchange:              -66.52131994521193
 One-Electron:             -1871.07949307874719
 Total Coulomb:            847.12347947882699
 Nuclear repulsion:        628.97205946969154
Wall  1 = 244
Clock 1 = 242.95573425292969
 ==================================================
                  Done GEN_SCFMAN                  
 ==================================================

Symmetry turned off temporarily

 --------------------------------------------------------------
             Orbital Energies (a.u.) and Symmetries
 --------------------------------------------------------------

 Alpha MOs, Restricted
 -- Occupied --                  
-11.233 -11.233 -11.232 -11.232 -11.232 -11.232 -11.231 -11.231
  1 Bu    1 Ag    1 Bg    1 Au    2 Ag    2 Bu    3 Ag    3 Bu                 
-11.231 -11.231 -11.229 -11.229  -1.149  -1.145  -1.013  -1.011
  2 Au    2 Bg    4 Bu    4 Ag    5 Ag    5 Bu    3 Au    6 Bu                 
 -1.011  -1.010  -0.821  -0.821  -0.820  -0.820  -0.707  -0.706
  6 Ag    3 Bg    7 Ag    4 Au    4 Bg    7 Bu    8 Ag    8 Bu                 
 -0.640  -0.640  -0.615  -0.615  -0.586  -0.585  -0.584  -0.584
  9 Ag    9 Bu    5 Bg    5 Au    6 Au   10 Ag   10 Bu    6 Bg                 
 -0.514  -0.491  -0.491  -0.491  -0.491  -0.480  -0.347  -0.331
 11 Ag    7 Au   11 Bu    7 Bg   12 Ag   12 Bu    8 Au   13 Bu                 
 -0.330  -0.317
 13 Ag    8 Bg                                                                 
 -- Virtual --                   
  0.039   0.045   0.045   0.059   0.059   0.062   0.069   0.071
 14 Ag    9 Au   14 Bu    9 Bg   15 Ag   15 Bu   10 Bg   16 Ag                 
  0.080   0.081   0.092   0.108   0.116   0.116   0.118   0.130
 16 Bu   10 Au   17 Bu   17 Ag   11 Bg   18 Ag   11 Au   19 Ag                 
  0.132   0.138   0.159   0.164   0.166   0.167   0.174   0.175
 18 Bu   19 Bu   20 Bu   12 Au   12 Bg   13 Au   20 Ag   14 Au                 
  0.176   0.178   0.180   0.187   0.188   0.193   0.201   0.203
 21 Bu   21 Ag   13 Bg   22 Bu   14 Bg   22 Ag   15 Au   23 Ag                 
  0.207   0.208   0.210   0.211   0.218   0.225   0.226   0.227
 15 Bg   23 Bu   24 Ag   16 Bg   25 Ag   16 Au   24 Bu   17 Bg                 
  0.227   0.228   0.241   0.251   0.252   0.253   0.259   0.262
 26 Ag   25 Bu   26 Bu   17 Au   27 Bu   18 Au   27 Ag   18 Bg                 
  0.265   0.266   0.278   0.279   0.291   0.304   0.318   0.326
 28 Ag   28 Bu   29 Ag   29 Bu   19 Au   19 Bg   20 Au   30 Bu                 
  0.337   0.338   0.349   0.350   0.356   0.371   0.380   0.383
 30 Ag   20 Bg   21 Au   31 Ag   31 Bu   32 Ag   32 Bu   33 Ag                 
  0.387   0.392   0.413   0.417   0.419   0.424   0.435   0.439
 33 Bu   21 Bg   34 Bu   22 Au   22 Bg   34 Ag   35 Ag   23 Bg                 
  0.439   0.446   0.450   0.457   0.499   0.507   0.511   0.515
 35 Bu   23 Au   36 Ag   36 Bu   37 Ag   24 Au   24 Bg   37 Bu                 
  0.516   0.519   0.526   0.531   0.612   0.617   0.634   0.642
 25 Au   38 Ag   38 Bu   25 Bg   26 Au   26 Bg   39 Ag   39 Bu                 
  0.705   0.731   0.734   0.734   0.745   0.747   0.754   0.755
 40 Ag   27 Au   41 Ag   40 Bu   41 Bu   42 Ag   28 Au   29 Au                 
  0.758   0.764   0.769   0.774   0.774   0.791   0.802   0.817
 27 Bg   42 Bu   43 Ag   28 Bg   30 Au   44 Ag   29 Bg   43 Bu                 
  0.839   0.857   0.867   0.870   0.892   0.898   0.918   0.920
 30 Bg   44 Bu   31 Au   45 Ag   46 Ag   45 Bu   47 Ag   46 Bu                 
  0.926   0.932   0.946   0.946   0.956   0.959   0.962   0.964
 31 Bg   48 Ag   47 Bu   32 Au   49 Ag   33 Au   48 Bu   32 Bg                 
  0.972   0.980   0.997   1.006   1.008   1.022   1.035   1.056
 33 Bg   49 Bu   50 Ag   51 Ag   50 Bu   51 Bu   34 Au   34 Bg                 
  1.058   1.077   1.078   1.091   1.104   1.112   1.116   1.127
 35 Au   52 Ag   52 Bu   53 Ag   53 Bu   54 Ag   54 Bu   36 Au                 
  1.130   1.135   1.142   1.159   1.185   1.195   1.226   1.229
 35 Bg   37 Au   36 Bg   37 Bg   55 Ag   55 Bu   56 Bu   38 Au                 
  1.252   1.260   1.268   1.280   1.280   1.310   1.353   1.367
 56 Ag   38 Bg   39 Au   57 Ag   39 Bg   57 Bu   40 Au   58 Ag                 
  1.378   1.378   1.399   1.409   1.418   1.423   1.485   1.539
 58 Bu   40 Bg   59 Bu   41 Au   59 Ag   41 Bg   60 Ag   60 Bu                 
  1.589   1.656   1.721   1.730   1.789   1.793   1.793   1.802
 61 Bu   61 Ag   42 Bg   42 Au   43 Au   62 Ag   62 Bu   63 Ag                 
  1.814   1.815   1.834   1.849   1.870   1.872   1.884   1.916
 63 Bu   43 Bg   64 Bu   64 Ag   44 Au   65 Ag   44 Bg   45 Au                 
  1.923   1.929   1.935   1.939   1.953   1.955   1.986   1.994
 45 Bg   65 Bu   66 Ag   66 Bu   46 Au   67 Ag   67 Bu   46 Bg                 
  2.011   2.044   2.069   2.072   2.079   2.081   2.113   2.116
 68 Ag   68 Bu   47 Au   69 Ag   47 Bg   69 Bu   48 Au   70 Ag                 
  2.127   2.144   2.156   2.165   2.233   2.245   2.249   2.250
 48 Bg   49 Au   49 Bg   70 Bu   50 Au   51 Au   71 Ag   71 Bu                 
  2.252   2.260   2.260   2.280   2.286   2.313   2.326   2.329
 50 Bg   51 Bg   72 Ag   52 Au   72 Bu   52 Bg   73 Ag   73 Bu                 
  2.356   2.363   2.376   2.381   2.388   2.388   2.391   2.394
 74 Ag   53 Au   74 Bu   53 Bg   54 Bg   75 Bu   54 Au   75 Ag                 
  2.648   2.651   2.669   2.670   2.742   2.751   2.756   2.783
 76 Bu   76 Ag   55 Bg   55 Au   56 Au   77 Ag   77 Bu   56 Bg                 
  2.821   2.827   2.831   2.857   2.861   2.866   2.967   2.968
 78 Ag   78 Bu   57 Au   79 Bu   79 Ag   57 Bg   80 Ag   80 Bu                 
  2.971   2.972   2.977   2.991   3.010   3.030   3.045   3.050
 58 Bg   58 Au   81 Ag   81 Bu   82 Ag   59 Au   83 Ag   82 Bu                 
  3.059   3.064   3.068   3.078   3.083   3.106   3.138   3.147
 84 Ag   83 Bu   60 Au   59 Bg   84 Bu   85 Ag   86 Ag   60 Bg                 
  3.157   3.191   3.217   3.263   3.272   3.276   3.280   3.331
 85 Bu   86 Bu   61 Au   87 Ag   62 Au   61 Bg   62 Bg   88 Ag                 
  3.334   3.338   3.341   3.341   3.343   3.349   3.379   3.393
 87 Bu   63 Bg   89 Ag   63 Au   64 Au   88 Bu   89 Bu   64 Bg                 
  3.501   3.514   3.563   3.565   3.794   3.797   3.805   3.842
 90 Bu   90 Ag   65 Bg   65 Au   66 Au   91 Bu   66 Bg   91 Ag                 
  3.908   3.926   3.966   3.977   3.986   4.005   4.090   4.094
 92 Ag   67 Au   92 Bu   93 Ag   67 Bg   93 Bu   94 Ag   94 Bu                 
  4.414   4.418   4.430   4.433   4.501   4.511   4.582   4.590
 68 Au   95 Ag   95 Bu   68 Bg   96 Ag   96 Bu   69 Au   97 Bu                 
  4.594   4.598   5.285   5.287  24.773  24.809  25.156  25.158
 97 Ag   69 Bg   70 Au   70 Bg   98 Bu   98 Ag   99 Ag   71 Au                 
 25.159  25.168  25.268  25.268  25.270  25.271  25.372  25.379
 71 Bg   99 Bu   72 Au  100 Bu   72 Bg  100 Ag  101 Ag  101 Bu                 

 Beta MOs, Restricted
 -- Occupied --                  
-11.233 -11.233 -11.232 -11.232 -11.232 -11.232 -11.231 -11.231
  1 Bu    1 Ag    1 Bg    1 Au    2 Ag    2 Bu    3 Ag    3 Bu                 
-11.231 -11.231 -11.229 -11.229  -1.149  -1.145  -1.013  -1.011
  2 Au    2 Bg    4 Bu    4 Ag    5 Ag    5 Bu    3 Au    6 Bu                 
 -1.011  -1.010  -0.821  -0.821  -0.820  -0.820  -0.707  -0.706
  6 Ag    3 Bg    7 Ag    4 Au    4 Bg    7 Bu    8 Ag    8 Bu                 
 -0.640  -0.640  -0.615  -0.615  -0.586  -0.585  -0.584  -0.584
  9 Ag    9 Bu    5 Bg    5 Au    6 Au   10 Ag   10 Bu    6 Bg                 
 -0.514  -0.491  -0.491  -0.491  -0.491  -0.480  -0.347  -0.331
 11 Ag    7 Au   11 Bu    7 Bg   12 Ag   12 Bu    8 Au   13 Bu                 
 -0.330  -0.317
 13 Ag    8 Bg                                                                 
 -- Virtual --                   
  0.039   0.045   0.045   0.059   0.059   0.062   0.069   0.071
 14 Ag    9 Au   14 Bu    9 Bg   15 Ag   15 Bu   10 Bg   16 Ag                 
  0.080   0.081   0.092   0.108   0.116   0.116   0.118   0.130
 16 Bu   10 Au   17 Bu   17 Ag   11 Bg   18 Ag   11 Au   19 Ag                 
  0.132   0.138   0.159   0.164   0.166   0.167   0.174   0.175
 18 Bu   19 Bu   20 Bu   12 Au   12 Bg   13 Au   20 Ag   14 Au                 
  0.176   0.178   0.180   0.187   0.188   0.193   0.201   0.203
 21 Bu   21 Ag   13 Bg   22 Bu   14 Bg   22 Ag   15 Au   23 Ag                 
  0.207   0.208   0.210   0.211   0.218   0.225   0.226   0.227
 15 Bg   23 Bu   24 Ag   16 Bg   25 Ag   16 Au   24 Bu   17 Bg                 
  0.227   0.228   0.241   0.251   0.252   0.253   0.259   0.262
 26 Ag   25 Bu   26 Bu   17 Au   27 Bu   18 Au   27 Ag   18 Bg                 
  0.265   0.266   0.278   0.279   0.291   0.304   0.318   0.326
 28 Ag   28 Bu   29 Ag   29 Bu   19 Au   19 Bg   20 Au   30 Bu                 
  0.337   0.338   0.349   0.350   0.356   0.371   0.380   0.383
 30 Ag   20 Bg   21 Au   31 Ag   31 Bu   32 Ag   32 Bu   33 Ag                 
  0.387   0.392   0.413   0.417   0.419   0.424   0.435   0.439
 33 Bu   21 Bg   34 Bu   22 Au   22 Bg   34 Ag   35 Ag   23 Bg                 
  0.439   0.446   0.450   0.457   0.499   0.507   0.511   0.515
 35 Bu   23 Au   36 Ag   36 Bu   37 Ag   24 Au   24 Bg   37 Bu                 
  0.516   0.519   0.526   0.531   0.612   0.617   0.634   0.642
 25 Au   38 Ag   38 Bu   25 Bg   26 Au   26 Bg   39 Ag   39 Bu                 
  0.705   0.731   0.734   0.734   0.745   0.747   0.754   0.755
 40 Ag   27 Au   41 Ag   40 Bu   41 Bu   42 Ag   28 Au   29 Au                 
  0.758   0.764   0.769   0.774   0.774   0.791   0.802   0.817
 27 Bg   42 Bu   43 Ag   28 Bg   30 Au   44 Ag   29 Bg   43 Bu                 
  0.839   0.857   0.867   0.870   0.892   0.898   0.918   0.920
 30 Bg   44 Bu   31 Au   45 Ag   46 Ag   45 Bu   47 Ag   46 Bu                 
  0.926   0.932   0.946   0.946   0.956   0.959   0.962   0.964
 31 Bg   48 Ag   47 Bu   32 Au   49 Ag   33 Au   48 Bu   32 Bg                 
  0.972   0.980   0.997   1.006   1.008   1.022   1.035   1.056
 33 Bg   49 Bu   50 Ag   51 Ag   50 Bu   51 Bu   34 Au   34 Bg                 
  1.058   1.077   1.078   1.091   1.104   1.112   1.116   1.127
 35 Au   52 Ag   52 Bu   53 Ag   53 Bu   54 Ag   54 Bu   36 Au                 
  1.130   1.135   1.142   1.159   1.185   1.195   1.226   1.229
 35 Bg   37 Au   36 Bg   37 Bg   55 Ag   55 Bu   56 Bu   38 Au                 
  1.252   1.260   1.268   1.280   1.280   1.310   1.353   1.367
 56 Ag   38 Bg   39 Au   57 Ag   39 Bg   57 Bu   40 Au   58 Ag                 
  1.378   1.378   1.399   1.409   1.418   1.423   1.485   1.539
 58 Bu   40 Bg   59 Bu   41 Au   59 Ag   41 Bg   60 Ag   60 Bu                 
  1.589   1.656   1.721   1.730   1.789   1.793   1.793   1.802
 61 Bu   61 Ag   42 Bg   42 Au   43 Au   62 Ag   62 Bu   63 Ag                 
  1.814   1.815   1.834   1.849   1.870   1.872   1.884   1.916
 63 Bu   43 Bg   64 Bu   64 Ag   44 Au   65 Ag   44 Bg   45 Au                 
  1.923   1.929   1.935   1.939   1.953   1.955   1.986   1.994
 45 Bg   65 Bu   66 Ag   66 Bu   46 Au   67 Ag   67 Bu   46 Bg                 
  2.011   2.044   2.069   2.072   2.079   2.081   2.113   2.116
 68 Ag   68 Bu   47 Au   69 Ag   47 Bg   69 Bu   48 Au   70 Ag                 
  2.127   2.144   2.156   2.165   2.233   2.245   2.249   2.250
 48 Bg   49 Au   49 Bg   70 Bu   50 Au   51 Au   71 Ag   71 Bu                 
  2.252   2.260   2.260   2.280   2.286   2.313   2.326   2.329
 50 Bg   51 Bg   72 Ag   52 Au   72 Bu   52 Bg   73 Ag   73 Bu                 
  2.356   2.363   2.376   2.381   2.388   2.388   2.391   2.394
 74 Ag   53 Au   74 Bu   53 Bg   54 Bg   75 Bu   54 Au   75 Ag                 
  2.648   2.651   2.669   2.670   2.742   2.751   2.756   2.783
 76 Bu   76 Ag   55 Bg   55 Au   56 Au   77 Ag   77 Bu   56 Bg                 
  2.821   2.827   2.831   2.857   2.861   2.866   2.967   2.968
 78 Ag   78 Bu   57 Au   79 Bu   79 Ag   57 Bg   80 Ag   80 Bu                 
  2.971   2.972   2.977   2.991   3.010   3.030   3.045   3.050
 58 Bg   58 Au   81 Ag   81 Bu   82 Ag   59 Au   83 Ag   82 Bu                 
  3.059   3.064   3.068   3.078   3.083   3.106   3.138   3.147
 84 Ag   83 Bu   60 Au   59 Bg   84 Bu   85 Ag   86 Ag   60 Bg                 
  3.157   3.191   3.217   3.263   3.272   3.276   3.280   3.331
 85 Bu   86 Bu   61 Au   87 Ag   62 Au   61 Bg   62 Bg   88 Ag                 
  3.334   3.338   3.341   3.341   3.343   3.349   3.379   3.393
 87 Bu   63 Bg   89 Ag   63 Au   64 Au   88 Bu   89 Bu   64 Bg                 
  3.501   3.514   3.563   3.565   3.794   3.797   3.805   3.842
 90 Bu   90 Ag   65 Bg   65 Au   66 Au   91 Bu   66 Bg   91 Ag                 
  3.908   3.926   3.966   3.977   3.986   4.005   4.090   4.094
 92 Ag   67 Au   92 Bu   93 Ag   67 Bg   93 Bu   94 Ag   94 Bu                 
  4.414   4.418   4.430   4.433   4.501   4.511   4.582   4.590
 68 Au   95 Ag   95 Bu   68 Bg   96 Ag   96 Bu   69 Au   97 Bu                 
  4.594   4.598   5.285   5.287  24.773  24.809  25.156  25.158
 97 Ag   69 Bg   70 Au   70 Bg   98 Bu   98 Ag   99 Ag   71 Au                 
 25.159  25.168  25.268  25.268  25.270  25.271  25.372  25.379
 71 Bg   99 Bu   72 Au  100 Bu   72 Bg  100 Ag  101 Ag  101 Bu                 
 --------------------------------------------------------------

          Ground-State Mulliken Net Atomic Charges

     Atom                 Charge (a.u.)
  ----------------------------------------
      1 C                     0.014377
      2 C                    -0.144416
      3 C                    -0.144416
      4 C                    -0.260644
      5 C                    -0.362231
      6 C                    -0.260644
      7 H                     0.196971
      8 H                     0.195192
      9 H                     0.189971
     10 H                     0.195192
     11 H                     0.196971
     12 H                     0.183676
     13 C                     0.014377
     14 C                    -0.144416
     15 C                    -0.144416
     16 C                    -0.260644
     17 C                    -0.362231
     18 C                    -0.260644
     19 H                     0.183676
     20 H                     0.196971
     21 H                     0.195192
     22 H                     0.189971
     23 H                     0.195192
     24 H                     0.196971
  ----------------------------------------
  Sum of atomic charges =    -0.000000

 -----------------------------------------------------------------
                    Cartesian Multipole Moments
 -----------------------------------------------------------------
    Charge (ESU x 10^10)
                -0.0000
    Dipole Moment (Debye)
         X      -0.0000      Y      -0.0000      Z       0.0000
       Tot       0.0000
    Quadrupole Moments (Debye-Ang)
        XX     -78.0403     XY      -8.7988     YY     -71.1677
        XZ       0.0000     YZ       0.0000     ZZ     -64.5262
    Octopole Moments (Debye-Ang^2)
       XXX       0.0000    XXY      -0.0000    XYY      -0.0000
       YYY       0.0000    XXZ       0.0000    XYZ       0.0000
       YYZ       0.0000    XZZ       0.0000    YZZ       0.0000
       ZZZ       0.0000
    Hexadecapole Moments (Debye-Ang^3)
      XXXX   -1880.3842   XXXY    -112.6912   XXYY    -375.4265
      XYYY     -37.0838   YYYY    -468.0035   XXXZ       0.0000
      XXYZ       0.0000   XYYZ       0.0000   YYYZ       0.0000
      XXZZ    -375.4392   XYZZ     -15.6225   YYZZ    -171.5707
      XZZZ       0.0000   YZZZ       0.0000   ZZZZ    -546.4765
 -----------------------------------------------------------------
 Mayer SCF Bond Order, atomic valence on the diagonal:

            1           2           3           4           5           6
    1   3.9760214   1.5298418   1.5298418   0.1445010  -0.1020847   0.1445010
    2   1.5298418   4.1117697   0.1957684   1.5369898   0.0690657  -0.0646810
    3   1.5298418   0.1957684   4.1117697  -0.0646810   0.0690657   1.5369898
    4   0.1445010   1.5369898  -0.0646810   4.2335223   1.6691453   0.0250093
    5  -0.1020847   0.0690657   0.0690657   1.6691453   4.3855631   1.6691453
    6   0.1445010  -0.0646810   1.5369898   0.0250093   1.6691453   4.2335223
    7  -0.0106972   0.0129614   0.9291554  -0.0101419   0.0061191  -0.0060896
    8   0.0151188  -0.0083894  -0.0003953   0.0098765  -0.0040709   0.9017448
    9  -0.0096738   0.0126943   0.0126943   0.0046703   0.8913392   0.0046703
   10   0.0151188  -0.0003953  -0.0083894   0.9017448  -0.0040709   0.0098765
   11  -0.0106972   0.9291554   0.0129614  -0.0060896   0.0061191  -0.0101419
   12   0.9245530  -0.0012310  -0.0012310   0.0102765  -0.0138404   0.0102765
   13   0.0779004  -0.0639336  -0.0639336  -0.0936007   0.0331937  -0.0936007
   14  -0.0639336   0.0341175  -0.1373282   0.0111154   0.0467322   0.0259760
   15  -0.0639336  -0.1373282   0.0341175   0.0259760   0.0467322   0.0111154
   16  -0.0936007   0.0111154   0.0259760   0.0217683  -0.0312775   0.0851559
   17   0.0331937   0.0467322   0.0467322  -0.0312775   0.0403926  -0.0312775
   18  -0.0936007   0.0259760   0.0111154   0.0851559  -0.0312775   0.0217683
   19   0.0046446  -0.0035912  -0.0035912  -0.0007671   0.0181680  -0.0007671
   20   0.0035457  -0.0106932   0.0003684  -0.0056083   0.0033917  -0.0011487
   21  -0.0034140  -0.0030821  -0.0011613   0.0021516  -0.0008302   0.0004312
   22   0.0047644   0.0014697   0.0014697  -0.0019749   0.0018438  -0.0019749
   23  -0.0034140  -0.0011613  -0.0030821   0.0004312  -0.0008302   0.0021516
   24   0.0035457   0.0003684  -0.0106932  -0.0011487   0.0033917  -0.0056083
            7           8           9          10          11          12
    1  -0.0106972   0.0151188  -0.0096738   0.0151188  -0.0106972   0.9245530
    2   0.0129614  -0.0083894   0.0126943  -0.0003953   0.9291554  -0.0012310
    3   0.9291554  -0.0003953   0.0126943  -0.0083894   0.0129614  -0.0012310
    4  -0.0101419   0.0098765   0.0046703   0.9017448  -0.0060896   0.0102765
    5   0.0061191  -0.0040709   0.8913392  -0.0040709   0.0061191  -0.0138404
    6  -0.0060896   0.9017448   0.0046703   0.0098765  -0.0101419   0.0102765
    7   0.9181510   0.0020498   0.0011904  -0.0000046   0.0014997   0.0026222
    8   0.0020498   0.9136778   0.0016214   0.0011250  -0.0000046   0.0014808
    9   0.0011904   0.0016214   0.9294751   0.0016214   0.0011904   0.0000050
   10  -0.0000046   0.0011250   0.0016214   0.9136778   0.0020498   0.0014808
   11   0.0014997  -0.0000046   0.0011904   0.0020498   0.9181510   0.0026222
   12   0.0026222   0.0014808   0.0000050   0.0014808   0.0026222   0.9522929
   13   0.0035457  -0.0034140   0.0047644  -0.0034140   0.0035457   0.0046446
   14  -0.0106932  -0.0030821   0.0014697  -0.0011613   0.0003684  -0.0035912
   15   0.0003684  -0.0011613   0.0014697  -0.0030821  -0.0106932  -0.0035912
   16  -0.0056083   0.0021516  -0.0019749   0.0004312  -0.0011487  -0.0007671
   17   0.0033917  -0.0008302   0.0018438  -0.0008302   0.0033917   0.0181680
   18  -0.0011487   0.0004312  -0.0019749   0.0021516  -0.0056083  -0.0007671
   19  -0.0000693  -0.0002572   0.0015640  -0.0002572  -0.0000693   0.0002715
   20   0.0000535  -0.0000117   0.0000942  -0.0002624  -0.0001739  -0.0000693
   21  -0.0000117   0.0000144  -0.0000181  -0.0000394  -0.0002624  -0.0002572
   22   0.0000942  -0.0000181   0.0001377  -0.0000181   0.0000942   0.0015640
   23  -0.0002624  -0.0000394  -0.0000181   0.0000144  -0.0000117  -0.0002572
   24  -0.0001739  -0.0002624   0.0000942  -0.0000117   0.0000535  -0.0000693
           13          14          15          16          17          18
    1   0.0779004  -0.0639336  -0.0639336  -0.0936007   0.0331937  -0.0936007
    2  -0.0639336   0.0341175  -0.1373282   0.0111154   0.0467322   0.0259760
    3  -0.0639336  -0.1373282   0.0341175   0.0259760   0.0467322   0.0111154
    4  -0.0936007   0.0111154   0.0259760   0.0217683  -0.0312775   0.0851559
    5   0.0331937   0.0467322   0.0467322  -0.0312775   0.0403926  -0.0312775
    6  -0.0936007   0.0259760   0.0111154   0.0851559  -0.0312775   0.0217683
    7   0.0035457  -0.0106932   0.0003684  -0.0056083   0.0033917  -0.0011487
    8  -0.0034140  -0.0030821  -0.0011613   0.0021516  -0.0008302   0.0004312
    9   0.0047644   0.0014697   0.0014697  -0.0019749   0.0018438  -0.0019749
   10  -0.0034140  -0.0011613  -0.0030821   0.0004312  -0.0008302   0.0021516
   11   0.0035457   0.0003684  -0.0106932  -0.0011487   0.0033917  -0.0056083
   12   0.0046446  -0.0035912  -0.0035912  -0.0007671   0.0181680  -0.0007671
   13   3.9760214   1.5298418   1.5298418   0.1445010  -0.1020847   0.1445010
   14   1.5298418   4.1117697   0.1957684   1.5369898   0.0690657  -0.0646810
   15   1.5298418   0.1957684   4.1117697  -0.0646810   0.0690657   1.5369898
   16   0.1445010   1.5369898  -0.0646810   4.2335223   1.6691453   0.0250093
   17  -0.1020847   0.0690657   0.0690657   1.6691453   4.3855631   1.6691453
   18   0.1445010  -0.0646810   1.5369898   0.0250093   1.6691453   4.2335223
   19   0.9245530  -0.0012310  -0.0012310   0.0102765  -0.0138404   0.0102765
   20  -0.0106972   0.0129614   0.9291554  -0.0101419   0.0061191  -0.0060896
   21   0.0151188  -0.0083894  -0.0003953   0.0098765  -0.0040709   0.9017448
   22  -0.0096738   0.0126943   0.0126943   0.0046703   0.8913392   0.0046703
   23   0.0151188  -0.0003953  -0.0083894   0.9017448  -0.0040709   0.0098765
   24  -0.0106972   0.9291554   0.0129614  -0.0060896   0.0061191  -0.0101419
           19          20          21          22          23          24
    1   0.0046446   0.0035457  -0.0034140   0.0047644  -0.0034140   0.0035457
    2  -0.0035912  -0.0106932  -0.0030821   0.0014697  -0.0011613   0.0003684
    3  -0.0035912   0.0003684  -0.0011613   0.0014697  -0.0030821  -0.0106932
    4  -0.0007671  -0.0056083   0.0021516  -0.0019749   0.0004312  -0.0011487
    5   0.0181680   0.0033917  -0.0008302   0.0018438  -0.0008302   0.0033917
    6  -0.0007671  -0.0011487   0.0004312  -0.0019749   0.0021516  -0.0056083
    7  -0.0000693   0.0000535  -0.0000117   0.0000942  -0.0002624  -0.0001739
    8  -0.0002572  -0.0000117   0.0000144  -0.0000181  -0.0000394  -0.0002624
    9   0.0015640   0.0000942  -0.0000181   0.0001377  -0.0000181   0.0000942
   10  -0.0002572  -0.0002624  -0.0000394  -0.0000181   0.0000144  -0.0000117
   11  -0.0000693  -0.0001739  -0.0002624   0.0000942  -0.0000117   0.0000535
   12   0.0002715  -0.0000693  -0.0002572   0.0015640  -0.0002572  -0.0000693
   13   0.9245530  -0.0106972   0.0151188  -0.0096738   0.0151188  -0.0106972
   14  -0.0012310   0.0129614  -0.0083894   0.0126943  -0.0003953   0.9291554
   15  -0.0012310   0.9291554  -0.0003953   0.0126943  -0.0083894   0.0129614
   16   0.0102765  -0.0101419   0.0098765   0.0046703   0.9017448  -0.0060896
   17  -0.0138404   0.0061191  -0.0040709   0.8913392  -0.0040709   0.0061191
   18   0.0102765  -0.0060896   0.9017448   0.0046703   0.0098765  -0.0101419
   19   0.9522929   0.0026222   0.0014808   0.0000050   0.0014808   0.0026222
   20   0.0026222   0.9181510   0.0020498   0.0011904  -0.0000046   0.0014997
   21   0.0014808   0.0020498   0.9136778   0.0016214   0.0011250  -0.0000046
   22   0.0000050   0.0011904   0.0016214   0.9294751   0.0016214   0.0011904
   23   0.0014808  -0.0000046   0.0011250   0.0016214   0.9136778   0.0020498
   24   0.0026222   0.0014997  -0.0000046   0.0011904   0.0020498   0.9181510


 JobOver = TRUE
Archival summary:
1\1\qciep03\SP\HF\BasisUnspecified\1212\jcartus\ThuJan2517:56:422018ThuJan2517:56:422018\0\\#,HF,BasisUnspecified,\\0,1\C\H,1,1.0813\C,1,1.39317,2,120.024\H,3,1.08155,1,119.918,2,0.483401,0\C,1,1.39317,2,120.024,3,-179.165,0\H,5,1.08155,1,119.918,2,-0.483401,0\C,3,1.39378,1,120.057,2,-179.121,0\H,7,1.08175,3,120.029,1,-179.985,0\C,5,1.39378,1,120.057,2,179.121,0\H,9,1.08175,5,120.029,1,179.985,0\C,7,1.3939,3,119.986,1,0.0769605,0\H,11,1.08176,7,120.016,3,-179.916,0\C,5,3.37483,1,87.3879,2,84.6386,0\H,13,1.08155,5,87.0826,1,179.995,0\C,13,1.39317,5,87.3879,1,59.8458,0\H,15,1.0813,13,120.024,5,84.6386,0\C,15,1.39317,13,119.948,5,-94.5273,0\H,17,1.08155,15,119.918,13,179.649,0\C,13,1.39378,5,95.1864,1,-60.108,0\H,19,1.08175,13,120.029,5,-90.0343,0\C,17,1.39378,15,120.057,13,0.0451964,0\H,21,1.08175,17,120.029,15,-179.985,0\C,19,1.3939,13,119.986,5,89.9032,0\H,23,1.08176,19,120.016,13,179.916,0\\HF=-461.505274\\@

 Total job time:  250.78s(wall), 249.52s(cpu) 
 Thu Jan 25 17:56:42 2018

        *************************************************************
        *                                                           *
        *  Thank you very much for using Q-Chem.  Have a nice day.  *
        *                                                           *
        *************************************************************


*** MISSION COMPLETED -- STARFLEET OUT ***

0 sent ACK to 0 
now end server 0 ... 
