Process 0 of 1 is on qciep03 - thread support 0
initial socket setup ...start
initial socket setup ...done 
now start server 0 ... 
qciep03.tugraz.at 127.0.1
Q-Chem Developer Version! Running on 127.0.1.*
                  Welcome to Q-Chem
     A Quantum Leap Into The Future Of Chemistry


 Q-Chem 5.0, Q-Chem, Inc., Pleasanton, CA (2017)

 Yihan Shao,  Zhengting Gan,  E. Epifanovsky,  A. T. B. Gilbert,  M. Wormit,  
 J. Kussmann,  A. W. Lange,  A. Behn,  Jia Deng,  Xintian Feng,  D. Ghosh,  
 M. Goldey,  P. R. Horn,  L. D. Jacobson,  I. Kaliman,  T. Kus,  A. Landau,  
 Jie Liu,  E. I. Proynov,  R. M. Richard,  R. P. Steele,  E. J. Sundstrom,  
 H. L. Woodcock III,  P. M. Zimmerman,  D. Zuev,  B. Albrecht,  E. Alguire,  
 S. A. Baeppler,  D. Barton,  Z. Benda,  Y. A. Bernard,  E. J. Berquist,  
 K. B. Bravaya,  H. Burton,  D. Casanova,  Chun-Min Chang,  Yunqing Chen,  
 A. Chien,  K. D. Closser,  M. P. Coons,  S. Dasgupta,  A. L. Dempwolff,  
 M. Diedenhofen,  Hainam Do,  R. G. Edgar,  Po-Tung Fang,  S. Fatehi,  
 Qingguo Feng,  J. Fosso-Tande,  Qinghui Ge,  A. Ghysels,  G. Gidofalvi,  
 J. Gomes,  J. Gonthier,  A. Gunina,  M. W. D. Hanson-Heine,  
 P. H. P. Harbach,  A. W. Hauser,  J. E. Herr,  E. G. Hohenstein,  
 Z. C. Holden,  Kerwin Hui,  T.-C. Jagau,  Hyunjun Ji,  B. Kaduk,  
 K. Khistyaev,  Jaehoon Kim,  P. Klunzinger,  K. Koh,  D. Kosenkov,  
 L. Koulias,  T. Kowalczyk,  C. M. Krauter,  A. Kunitsa,  Ka Un Lao,  
 A. Laurent,  K. V. Lawler,  Joonho Lee,  D. Lefrancois,  S. Lehtola,  
 D. S. Levine,  Yi-Pei Li,  You-Sheng Lin,  Fenglai Liu,  E. Livshits,  
 A. Luenser,  P. Manohar,  E. Mansoor,  S. F. Manzer,  Shan-Ping Mao,  
 Yuezhi Mao,  N. Mardirossian,  A. V. Marenich,  T. Markovich,  
 L. A. Martinez-Martinez,  S. A. Maurer,  N. J. Mayhall,  S. C. McKenzie,  
 J.-M. Mewes,  A. F. Morrison,  J. W. Mullinax,  K. Nanda,  
 T. S. Nguyen-Beck,  R. Olivares-Amaya,  J. A. Parkhill,  T. M. Perrine,  
 F. Plasser,  S. Prager,  A. Prociuk,  E. Ramos,  D. R. Rehn,  F. Rob,  
 M. Schneider,  N. Sergueev,  S. M. Sharada,  S. Sharma,  D. W. Small,  
 T. Stauch,  T. Stein,  Yu-Chuan Su,  A. J. W. Thom,  A. Tkatchenko,  
 T. Tsuchimochi,  L. Vogt,  O. Vydrov,  M. A. Watson,  J. Wenzel,  
 M. de Wergifosse,  T. A. Wesolowski,  A. White,  J. Witte,  A. Yamada,  
 Jun Yang,  K. Yao,  S. Yeganeh,  S. R. Yost,  Zhi-Qiang You,  A. Zech,  
 Igor Ying Zhang,  Xing Zhang,  Yan Zhao,  Ying Zhu,  B. R. Brooks,  
 G. K. L. Chan,  C. J. Cramer,  M. S. Gordon,  W. J. Hehre,  A. Klamt,  
 M. W. Schmidt,  C. D. Sherrill,  D. G. Truhlar,  A. Aspuru-Guzik,  R. Baer,  
 A. T. Bell,  N. A. Besley,  Jeng-Da Chai,  R. A. DiStasio Jr.,  A. Dreuw,  
 B. D. Dunietz,  T. R. Furlani,  Chao-Ping Hsu,  Yousung Jung,  Jing Kong,  
 D. S. Lambrecht,  WanZhen Liang,  C. Ochsenfeld,  V. A. Rassolov,  
 L. V. Slipchenko,  J. E. Subotnik,  T. Van Voorhis,  J. M. Herbert,  
 A. I. Krylov,  P. M. W. Gill,  M. Head-Gordon

 Contributors to earlier versions of Q-Chem not listed above: 
 R. D. Adamson,  B. Austin,  J. Baker,  G. J. O. Beran,  K. Brandhorst,  
 S. T. Brown,  E. F. C. Byrd,  A. K. Chakraborty,  C.-L. Cheng,  
 Siu Hung Chien,  D. M. Chipman,  D. L. Crittenden,  H. Dachsel,  
 R. J. Doerksen,  A. D. Dutoi,  L. Fusti-Molnar,  W. A. Goddard III,  
 A. Golubeva-Zadorozhnaya,  S. R. Gwaltney,  G. Hawkins,  A. Heyden,  
 S. Hirata,  G. Kedziora,  F. J. Keil,  C. Kelley,  Jihan Kim,  R. A. King,  
 R. Z. Khaliullin,  P. P. Korambath,  W. Kurlancheek,  A. M. Lee,  M. S. Lee,  
 S. V. Levchenko,  Ching Yeh Lin,  D. Liotard,  R. C. Lochan,  I. Lotan,  
 P. E. Maslen,  N. Nair,  D. P. O'Neill,  D. Neuhauser,  E. Neuscamman,  
 C. M. Oana,  R. Olson,  B. Peters,  R. Peverati,  P. A. Pieniazek,  
 Y. M. Rhee,  J. Ritchie,  M. A. Rohrdanz,  E. Rosta,  N. J. Russ,  
 H. F. Schaefer III,  N. E. Schultz,  N. Shenvi,  A. C. Simmonett,  A. Sodt,  
 D. Stuck,  K. S. Thanthiriwatte,  V. Vanovschi,  Tao Wang,  A. Warshel,  
 C. F. Williams,  Q. Wu,  X. Xu,  W. Zhang

 Please cite Q-Chem as follows:
 Y. Shao et al., Mol. Phys. 113, 184-215 (2015)
 DOI: 10.1080/00268976.2014.952696

 Q-Chem 5.0.2 for Intel X86 EM64T Linux

 Parts of Q-Chem use Armadillo 5.200.1 (Boston Tea Smuggler).
 http://arma.sourceforge.net/

 Q-Chem begins on Thu Feb  1 12:04:59 2018  


Host: 0

     Scratch files written to /home/jcartus/scratch/35_HBr-mOH_mono2.dir//
 Using version located at /usr/local/qchem/bin/qchem

 Parallel job on  1  processors

Total Memory Limit in MB = 2000
Mega-Array Size in MB = 192

Checking the input file for inconsistencies... 	...done.
Finally everything over in PARseQInput

--------------------------------------------------------------
User input:
--------------------------------------------------------------
$rem
SCF_PRINT                     1
BASIS                         6-311++g**
SCF_SAVE_MATRICES             1
SCF_CONVERGENCE               5
SCF_FINAL_PRINT               1
METHOD                        hf
JOBTYPE                       sp
$end

$molecule
0 1
O    -0.257020059    0.000182833    3.141151173
H    -1.048680694    -4.0312e-05    3.684018874
C    0.880527259    2.5604e-05    3.997486173
H    1.753839233    9.853e-05    3.353020187
H    0.91354958    0.888915397    4.626706548
H    0.913509357    -0.889046121    4.62645042
$end


--------------------------------------------------------------
 ----------------------------------------------------------------
             Standard Nuclear Orientation (Angstroms)
    I     Atom           X                Y                Z
 ----------------------------------------------------------------
    1      O       0.7486211483    -0.1222631652    -0.0000003080
    2      H       1.1445034572     0.7522133348     0.0000056875
    3      C      -0.6680099660     0.0208446394     0.0000003562
    4      H      -1.0810950309    -0.9828340483    -0.0001930689
    5      H      -1.0221702107     0.5416625692     0.8890746069
    6      H      -1.0221476061     0.5419956298    -0.8888868987
 ----------------------------------------------------------------
 Molecular Point Group                 C1    NOp =  1
 Largest Abelian Subgroup              C1    NOp =  1
 Nuclear Repulsion Energy =    40.3075584472 hartrees
 There are        9 alpha and        9 beta electrons
 Requested basis set is 6-311++G(d,p)
 There are 32 shells and 72 basis functions

 Total QAlloc Memory Limit   2000 MB
 Mega-Array Size       188 MB
 MEM_STATIC part       192 MB

finished with qalloc call

                       Distance Matrix (Angstroms)
             O (  1)   H (  2)   C (  3)   H (  4)   H (  5)
   H (  2)  0.959912
   C (  3)  1.423841  1.954509
   H (  4)  2.021990  2.821999  1.085362
   H (  5)  2.089726  2.351436  1.089557  1.765888
   H (  6)  2.089732  2.351318  1.089556  1.765887  1.777962

 Job number = 2, Threshold = 1.00E-08
Integral type ranges set in mkLRange.C for JobNum: 2  <1-21|1-21>
Symmetry turned off temporarily
 Using the largest function pair in Schwarz integrals
Total number of integrals generated =           34749
Symmetry turned back on
 A cutoff of  1.0D-08 yielded    528 shell pairs
 There are      2708 function pairs (      2865 Cartesian)
 Job number = 11, Threshold = 1.00E-08
Integral type ranges set in mkLRange.C for JobNum: 11  <1-21|22-22>
Total number of integrals generated =           17190
 Smallest overlap matrix eigenvalue = 1.06E-03
 Multipole matrices computed through 2nd order

 Scale SEOQF with 1.000000e-01/1.000000e-01/1.000000e-01

 Standard Electronic Orientation quadrupole field applied
 Nucleus-field energy     =     0.0000000004 hartrees
 ENuRep (before)= 40.3075584472
 ENucField = 0.0000000004
 ENuRep (after) = 40.3075584476
 Guess from superposition of atomic densities
 Warning:  Energy on first SCF cycle will be non-variational
 SAD guess density has 18.000000 electrons

 ==================================================
    GEN_SCFMAN: A general SCF calculation manager  
                                                   
    Authors:                                       
        -- Eric Jon Sundstrom 2008-2014            
        -- Paul Horn 2010-2015                     
        -- Yuezhi Mao 2012-                        
        -- Dmitri Zuev 2014                        
        -- Alec White 2015-                        
        -- David Stuck 2015                        
        -- Shaama M.S. 2015                        
        -- Shane Yost 2015-                         
        -- Joonho Lee 2016-                        
        -- David Small 2016-                       
        -- Daniel Levine 2016-                     
        -- Susi Lehtola 2017-                      
        -- Hugh Burton 2017-                       
 ==================================================
 Hartree-Fock
Finding J and K together
 Job number = 22, Threshold = 1.00E-08
Integral type ranges set in mkLRange.C for JobNum: 22  <1-21|1-21>
 MakeJK  time:  CPU       0.45 s  wall       0.49 s
 HF Exchange:              -14.65237852037557
 One-Electron:             -234.88239832278342
 Total Coulomb:             93.92782343119042
 Nuclear repulsion:         40.30755844760424
 A restricted SCF calculation will be
 performed using DIIS
 SCF converges when DIIS error is below 1.0e-05
 ---------------------------------------
  Cycle       Energy         DIIS error
 ---------------------------------------
Finding J and K together
 Job number = 22, Threshold = 1.00E-08
Integral type ranges set in mkLRange.C for JobNum: 22  <1-21|1-21>
 MakeJK  time:  CPU       0.89 s  wall       0.97 s
 HF Exchange:              -14.88356277573956
 One-Electron:             -237.31324843254686
 Total Coulomb:             96.84562773655105
 Nuclear repulsion:         40.30755844760424
    1    -115.2993949644      6.98e-02  
Finding J and K together
 Job number = 22, Threshold = 1.00E-08
Integral type ranges set in mkLRange.C for JobNum: 22  <1-21|1-21>
 MakeJK  time:  CPU       0.89 s  wall       0.91 s
 HF Exchange:              -14.77712796399781
 One-Electron:             -236.32489437608731
 Total Coulomb:             95.72264382431199
 Nuclear repulsion:         40.30755844760424
    2    -115.0436250241      7.78e-03  
Finding J and K together
 Job number = 22, Threshold = 1.00E-08
Integral type ranges set in mkLRange.C for JobNum: 22  <1-21|1-21>
 MakeJK  time:  CPU       0.90 s  wall       0.90 s
 HF Exchange:              -14.85780483971176
 One-Electron:             -236.89428280419770
 Total Coulomb:             96.36530342934172
 Nuclear repulsion:         40.30755844760424
    3    -115.0718200682      4.19e-03  
Finding J and K together
 Job number = 22, Threshold = 1.00E-08
Integral type ranges set in mkLRange.C for JobNum: 22  <1-21|1-21>
 MakeJK  time:  CPU       0.90 s  wall       0.91 s
 HF Exchange:              -14.85045441311301
 One-Electron:             -236.79851000212213
 Total Coulomb:             96.26176435621893
 Nuclear repulsion:         40.30755844760424
    4    -115.0792257670      7.89e-04  
Finding J and K together
 Job number = 22, Threshold = 1.00E-08
Integral type ranges set in mkLRange.C for JobNum: 22  <1-21|1-21>
 MakeJK  time:  CPU       0.89 s  wall       0.90 s
 HF Exchange:              -14.85311078736118
 One-Electron:             -236.81389815757603
 Total Coulomb:             96.27979020704815
 Nuclear repulsion:         40.30755844760424
    5    -115.0796416114      1.34e-04  
Finding J and K together
 Job number = 22, Threshold = 1.00E-08
Integral type ranges set in mkLRange.C for JobNum: 22  <1-21|1-21>
 MakeJK  time:  CPU       0.90 s  wall       0.95 s
 HF Exchange:              -14.85283372191306
 One-Electron:             -236.80931411366564
 Total Coulomb:             96.27492805662614
 Nuclear repulsion:         40.30755844760424
    6    -115.0796602903      2.92e-05  
    7    -115.0796613313      9.37e-06  Convergence criterion met
 ---------------------------------------
 SCF time:   CPU 5.94s  wall 6.00s 
 Total energy in the final basis set =     -115.0796613313
 HF Exchange:              -14.85283372191306
 One-Electron:             -236.80931411366564
 Total Coulomb:             96.27492805662614
 Nuclear repulsion:         40.30755844760424
Wall  1 = 6
Clock 1 = 5.95974588394165
 ==================================================
                  Done GEN_SCFMAN                  
 ==================================================

Symmetry turned off temporarily

 --------------------------------------------------------------

                    Orbital Energies (a.u.)
 --------------------------------------------------------------

 Alpha MOs
 -- Occupied --
-20.558 -11.273  -1.358  -0.929  -0.692  -0.622  -0.594  -0.505
 -0.453
 -- Virtual --
  0.039   0.064   0.073   0.081   0.127   0.146   0.160   0.183
  0.280   0.289   0.297   0.298   0.310   0.330   0.352   0.394
  0.477   0.564   0.578   0.712   0.774   0.847   0.854   0.877
  1.068   1.190   1.235   1.290   1.376   1.451   1.624   1.681
  1.712   1.794   1.804   1.817   1.962   1.966   2.078   2.297
  2.343   2.421   2.518   2.712   2.763   2.786   2.855   2.859
  2.987   3.200   3.341   3.465   3.597   3.681   4.138   4.195
  4.332   4.442   5.567   5.910   6.213  25.078  51.600
 --------------------------------------------------------------

          Ground-State Mulliken Net Atomic Charges

     Atom                 Charge (a.u.)
  ----------------------------------------
      1 O                    -0.389573
      2 H                     0.257037
      3 C                    -0.210562
      4 H                     0.133163
      5 H                     0.104971
      6 H                     0.104963
  ----------------------------------------
  Sum of atomic charges =     0.000000

 -----------------------------------------------------------------
                    Cartesian Multipole Moments
 -----------------------------------------------------------------
    Charge (ESU x 10^10)
                 0.0000
    Dipole Moment (Debye)
         X      -1.0879      Y       1.7035      Z      -0.0000
       Tot       2.0212
    Quadrupole Moments (Debye-Ang)
        XX     -12.9916     XY       2.4484     YY     -12.1617
        XZ       0.0000     YZ       0.0000     ZZ     -13.7421
    Octopole Moments (Debye-Ang^2)
       XXX       3.8162    XXY       2.6450    XYY       1.6570
       YYY       0.7858    XXZ      -0.0000    XYZ      -0.0000
       YYZ      -0.0003    XZZ       0.1475    YZZ       0.7796
       ZZZ       0.0003
    Hexadecapole Moments (Debye-Ang^3)
      XXXX     -61.8213   XXXY       4.3408   XXYY     -12.5522
      XYYY       3.2853   YYYY     -19.7646   XXXZ       0.0001
      XXYZ       0.0001   XYYZ       0.0004   YYYZ       0.0000
      XXZZ     -14.4068   XYZZ      -0.0638   YYZZ      -6.7334
      XZZZ      -0.0003   YZZZ       0.0000   ZZZZ     -19.6678
 -----------------------------------------------------------------
 Mayer SCF Bond Order, atomic valence on the diagonal:

            1           2           3           4           5           6
    1   1.7121821   0.9447754   0.8712964  -0.0486973  -0.0275966  -0.0275958
    2   0.9447754   0.9573693   0.0114563   0.0058323  -0.0023479  -0.0023468
    3   0.8712964   0.0114563   3.8543965   0.9997317   0.9859551   0.9859570
    4  -0.0486973   0.0058323   0.9997317   0.9169638  -0.0199518  -0.0199512
    5  -0.0275966  -0.0023479   0.9859551  -0.0199518   0.9151348  -0.0209240
    6  -0.0275958  -0.0023468   0.9859570  -0.0199512  -0.0209240   0.9151392


 JobOver = TRUE
Archival summary:
1\1\qciep03\SP\HF\BasisUnspecified\114\jcartus\ThuFeb112:05:052018ThuFeb112:05:052018\0\\#,HF,BasisUnspecified,\\0,1\O\H,1,0.959912\C,1,1.42384,2,108.588\H,3,1.08536,1,106.602,2,179.99,0\H,3,1.08956,1,111.806,2,61.4859,0\H,3,1.08956,1,111.805,2,-61.5067,0\\HF=-115.079661\\@

 Total job time:  6.39s(wall), 6.13s(cpu) 
 Thu Feb  1 12:05:05 2018

        *************************************************************
        *                                                           *
        *  Thank you very much for using Q-Chem.  Have a nice day.  *
        *                                                           *
        *************************************************************


*** MISSION COMPLETED -- STARFLEET OUT ***

0 sent ACK to 0 
now end server 0 ... 
