Process 0 of 1 is on qciep03 - thread support 0
initial socket setup ...start
initial socket setup ...done 
now start server 0 ... 
qciep03.tugraz.at 127.0.1
Q-Chem Developer Version! Running on 127.0.1.*
                  Welcome to Q-Chem
     A Quantum Leap Into The Future Of Chemistry


 Q-Chem 5.0, Q-Chem, Inc., Pleasanton, CA (2017)

 Yihan Shao,  Zhengting Gan,  E. Epifanovsky,  A. T. B. Gilbert,  M. Wormit,  
 J. Kussmann,  A. W. Lange,  A. Behn,  Jia Deng,  Xintian Feng,  D. Ghosh,  
 M. Goldey,  P. R. Horn,  L. D. Jacobson,  I. Kaliman,  T. Kus,  A. Landau,  
 Jie Liu,  E. I. Proynov,  R. M. Richard,  R. P. Steele,  E. J. Sundstrom,  
 H. L. Woodcock III,  P. M. Zimmerman,  D. Zuev,  B. Albrecht,  E. Alguire,  
 S. A. Baeppler,  D. Barton,  Z. Benda,  Y. A. Bernard,  E. J. Berquist,  
 K. B. Bravaya,  H. Burton,  D. Casanova,  Chun-Min Chang,  Yunqing Chen,  
 A. Chien,  K. D. Closser,  M. P. Coons,  S. Dasgupta,  A. L. Dempwolff,  
 M. Diedenhofen,  Hainam Do,  R. G. Edgar,  Po-Tung Fang,  S. Fatehi,  
 Qingguo Feng,  J. Fosso-Tande,  Qinghui Ge,  A. Ghysels,  G. Gidofalvi,  
 J. Gomes,  J. Gonthier,  A. Gunina,  M. W. D. Hanson-Heine,  
 P. H. P. Harbach,  A. W. Hauser,  J. E. Herr,  E. G. Hohenstein,  
 Z. C. Holden,  Kerwin Hui,  T.-C. Jagau,  Hyunjun Ji,  B. Kaduk,  
 K. Khistyaev,  Jaehoon Kim,  P. Klunzinger,  K. Koh,  D. Kosenkov,  
 L. Koulias,  T. Kowalczyk,  C. M. Krauter,  A. Kunitsa,  Ka Un Lao,  
 A. Laurent,  K. V. Lawler,  Joonho Lee,  D. Lefrancois,  S. Lehtola,  
 D. S. Levine,  Yi-Pei Li,  You-Sheng Lin,  Fenglai Liu,  E. Livshits,  
 A. Luenser,  P. Manohar,  E. Mansoor,  S. F. Manzer,  Shan-Ping Mao,  
 Yuezhi Mao,  N. Mardirossian,  A. V. Marenich,  T. Markovich,  
 L. A. Martinez-Martinez,  S. A. Maurer,  N. J. Mayhall,  S. C. McKenzie,  
 J.-M. Mewes,  A. F. Morrison,  J. W. Mullinax,  K. Nanda,  
 T. S. Nguyen-Beck,  R. Olivares-Amaya,  J. A. Parkhill,  T. M. Perrine,  
 F. Plasser,  S. Prager,  A. Prociuk,  E. Ramos,  D. R. Rehn,  F. Rob,  
 M. Schneider,  N. Sergueev,  S. M. Sharada,  S. Sharma,  D. W. Small,  
 T. Stauch,  T. Stein,  Yu-Chuan Su,  A. J. W. Thom,  A. Tkatchenko,  
 T. Tsuchimochi,  L. Vogt,  O. Vydrov,  M. A. Watson,  J. Wenzel,  
 M. de Wergifosse,  T. A. Wesolowski,  A. White,  J. Witte,  A. Yamada,  
 Jun Yang,  K. Yao,  S. Yeganeh,  S. R. Yost,  Zhi-Qiang You,  A. Zech,  
 Igor Ying Zhang,  Xing Zhang,  Yan Zhao,  Ying Zhu,  B. R. Brooks,  
 G. K. L. Chan,  C. J. Cramer,  M. S. Gordon,  W. J. Hehre,  A. Klamt,  
 M. W. Schmidt,  C. D. Sherrill,  D. G. Truhlar,  A. Aspuru-Guzik,  R. Baer,  
 A. T. Bell,  N. A. Besley,  Jeng-Da Chai,  R. A. DiStasio Jr.,  A. Dreuw,  
 B. D. Dunietz,  T. R. Furlani,  Chao-Ping Hsu,  Yousung Jung,  Jing Kong,  
 D. S. Lambrecht,  WanZhen Liang,  C. Ochsenfeld,  V. A. Rassolov,  
 L. V. Slipchenko,  J. E. Subotnik,  T. Van Voorhis,  J. M. Herbert,  
 A. I. Krylov,  P. M. W. Gill,  M. Head-Gordon

 Contributors to earlier versions of Q-Chem not listed above: 
 R. D. Adamson,  B. Austin,  J. Baker,  G. J. O. Beran,  K. Brandhorst,  
 S. T. Brown,  E. F. C. Byrd,  A. K. Chakraborty,  C.-L. Cheng,  
 Siu Hung Chien,  D. M. Chipman,  D. L. Crittenden,  H. Dachsel,  
 R. J. Doerksen,  A. D. Dutoi,  L. Fusti-Molnar,  W. A. Goddard III,  
 A. Golubeva-Zadorozhnaya,  S. R. Gwaltney,  G. Hawkins,  A. Heyden,  
 S. Hirata,  G. Kedziora,  F. J. Keil,  C. Kelley,  Jihan Kim,  R. A. King,  
 R. Z. Khaliullin,  P. P. Korambath,  W. Kurlancheek,  A. M. Lee,  M. S. Lee,  
 S. V. Levchenko,  Ching Yeh Lin,  D. Liotard,  R. C. Lochan,  I. Lotan,  
 P. E. Maslen,  N. Nair,  D. P. O'Neill,  D. Neuhauser,  E. Neuscamman,  
 C. M. Oana,  R. Olson,  B. Peters,  R. Peverati,  P. A. Pieniazek,  
 Y. M. Rhee,  J. Ritchie,  M. A. Rohrdanz,  E. Rosta,  N. J. Russ,  
 H. F. Schaefer III,  N. E. Schultz,  N. Shenvi,  A. C. Simmonett,  A. Sodt,  
 D. Stuck,  K. S. Thanthiriwatte,  V. Vanovschi,  Tao Wang,  A. Warshel,  
 C. F. Williams,  Q. Wu,  X. Xu,  W. Zhang

 Please cite Q-Chem as follows:
 Y. Shao et al., Mol. Phys. 113, 184-215 (2015)
 DOI: 10.1080/00268976.2014.952696

 Q-Chem 5.0.2 for Intel X86 EM64T Linux

 Parts of Q-Chem use Armadillo 5.200.1 (Boston Tea Smuggler).
 http://arma.sourceforge.net/

 Q-Chem begins on Thu Feb  1 12:19:43 2018  


Host: 0

     Scratch files written to /home/jcartus/scratch/17_F3bromomethane-formaldehyde.dir//
 Using version located at /usr/local/qchem/bin/qchem

 Parallel job on  1  processors

Total Memory Limit in MB = 2000
Mega-Array Size in MB = 192

Checking the input file for inconsistencies... 	...done.
Finally everything over in PARseQInput

--------------------------------------------------------------
User input:
--------------------------------------------------------------
$rem
SCF_PRINT                     1
BASIS                         6-311++g**
SCF_SAVE_MATRICES             1
SCF_CONVERGENCE               5
SCF_FINAL_PRINT               1
METHOD                        hf
JOBTYPE                       sp
$end

$molecule
0 1
C    0.092348417    -0.047899443    -0.084180609
Br    1.850295174    0.401756602    0.541215366
F    -0.041248424    -1.365231569    -0.186834437
F    -0.830122197    0.403465307    0.756154716
F    -0.127685037    0.489606579    -1.278313038
O    4.695578043    0.845065122    1.191773039
C    5.385158396    0.226244432    0.410437893
H    6.482742329    0.244130452    0.468348711
H    4.945821455    -0.382680577    -0.393692603
$end


--------------------------------------------------------------
 ----------------------------------------------------------------
             Standard Nuclear Orientation (Angstroms)
    I     Atom           X                Y                Z
 ----------------------------------------------------------------
    1      C       1.6058528699    -0.1232784782    -0.0002927478
    2      Br     -0.2729533443     0.2688614486     0.0006932069
    3      F       1.9033973137    -0.9684025695    -0.9805898604
    4      F       2.3127341310     0.9863016298    -0.1734877139
    5      F       1.9659188876    -0.6755356496     1.1523755402
    6      O      -3.2193727495     0.4532314486    -0.0009579847
    7      C      -3.6895625868    -0.6638475121    -0.0000457043
    8      H      -4.7755860252    -0.8338643388    -0.0034269054
    9      H      -3.0522596183    -1.5606527079     0.0041775620
 ----------------------------------------------------------------
 Molecular Point Group                 C1    NOp =  1
 Largest Abelian Subgroup              C1    NOp =  1
 Nuclear Repulsion Energy =   540.6094697159 hartrees
 There are       42 alpha and       42 beta electrons
 Requested basis set is 6-311++G(d,p)
 There are 65 shells and 194 basis functions

 Total QAlloc Memory Limit   2000 MB
 Mega-Array Size       188 MB
 MEM_STATIC part       192 MB

finished with qalloc call

                       Distance Matrix (Angstroms)
             C (  1)   Br(  2)   F (  3)   F (  4)   F (  5)   O (  6)
   Br(  2)  1.919293
   F (  3)  1.328062  2.688911
   F (  4)  1.326969  2.689022  2.154029
   F (  5)  1.327885  2.689016  2.153885  2.154042
   O (  6)  4.859544  2.952183  5.405876  5.560408  5.430612
   C (  7)  5.322935  3.541633  5.686424  6.227410  5.771714  1.212000
   H (  8)  6.420880  4.635701  6.751427  7.320260  6.841698  2.019510
   H (  9)  4.874841  3.327413  5.087147  5.941523  5.223400  2.020812
             C (  7)   H (  8)
   H (  8)  1.099256
   H (  9)  1.100197  1.870330

 Job number = 2, Threshold = 1.00E-08
Integral type ranges set in mkLRange.C for JobNum: 2  <1-21|1-21>
Symmetry turned off temporarily
 Using the largest function pair in Schwarz integrals
Total number of integrals generated =          259391
Symmetry turned back on
 A cutoff of  1.0D-08 yielded   1536 shell pairs
 There are     14211 function pairs (     15473 Cartesian)
 Job number = 11, Threshold = 1.00E-08
Integral type ranges set in mkLRange.C for JobNum: 11  <1-21|22-22>
Total number of integrals generated =          138780
 Smallest overlap matrix eigenvalue = 2.04E-04
 Multipole matrices computed through 2nd order

 Scale SEOQF with 1.000000e-01/1.000000e-01/1.000000e-01

 Standard Electronic Orientation quadrupole field applied
 Nucleus-field energy     =     0.0000000118 hartrees
 ENuRep (before)= 540.6094697159
 ENucField = 0.0000000118
 ENuRep (after) = 540.6094697277
 Guess from superposition of atomic densities
 Warning:  Energy on first SCF cycle will be non-variational
 SAD guess density has 84.000000 electrons

 ==================================================
    GEN_SCFMAN: A general SCF calculation manager  
                                                   
    Authors:                                       
        -- Eric Jon Sundstrom 2008-2014            
        -- Paul Horn 2010-2015                     
        -- Yuezhi Mao 2012-                        
        -- Dmitri Zuev 2014                        
        -- Alec White 2015-                        
        -- David Stuck 2015                        
        -- Shaama M.S. 2015                        
        -- Shane Yost 2015-                         
        -- Joonho Lee 2016-                        
        -- David Small 2016-                       
        -- Daniel Levine 2016-                     
        -- Susi Lehtola 2017-                      
        -- Hugh Burton 2017-                       
 ==================================================
 Hartree-Fock
Finding J and K together
 Job number = 22, Threshold = 1.00E-08
Integral type ranges set in mkLRange.C for JobNum: 22  <1-21|1-21>
 MakeJK  time:  CPU       6.90 s  wall       7.82 s
 HF Exchange:              -138.94465852764060
 One-Electron:             -5284.10685075880701
 Total Coulomb:            1858.90573428322296
 Nuclear repulsion:        540.60946972772808
 A restricted SCF calculation will be
 performed using DIIS
 SCF converges when DIIS error is below 1.0e-05
 ---------------------------------------
  Cycle       Energy         DIIS error
 ---------------------------------------
Finding J and K together
 Job number = 22, Threshold = 1.00E-08
Integral type ranges set in mkLRange.C for JobNum: 22  <1-21|1-21>
 MakeJK  time:  CPU      16.43 s  wall      17.66 s
 HF Exchange:              -139.31894218544434
 One-Electron:             -5282.24898733617010
 Total Coulomb:            1858.66782107037034
 Nuclear repulsion:        540.60946972772808
    1   -3023.5363052755      4.18e-02  
Finding J and K together
 Job number = 22, Threshold = 1.00E-08
Integral type ranges set in mkLRange.C for JobNum: 22  <1-21|1-21>
 MakeJK  time:  CPU      16.94 s  wall      17.57 s
 HF Exchange:              -138.87186402112690
 One-Electron:             -5282.89237534757103
 Total Coulomb:            1858.72204821233277
 Nuclear repulsion:        540.60946972772808
    2   -3022.2906387235      7.79e-03  
Finding J and K together
 Job number = 22, Threshold = 1.00E-08
Integral type ranges set in mkLRange.C for JobNum: 22  <1-21|1-21>
 MakeJK  time:  CPU      16.40 s  wall      18.66 s
 HF Exchange:              -139.19738621383084
 One-Electron:             -5284.29829000992595
 Total Coulomb:            1860.34251721467558
 Nuclear repulsion:        540.60946972772808
    3   -3022.4327214286      5.85e-03  
Finding J and K together
 Job number = 22, Threshold = 1.00E-08
Integral type ranges set in mkLRange.C for JobNum: 22  <1-21|1-21>
 MakeJK  time:  CPU      16.54 s  wall      18.57 s
 HF Exchange:              -139.15767409124561
 One-Electron:             -5283.67578887567288
 Total Coulomb:            1859.67817230641731
 Nuclear repulsion:        540.60946972772808
    4   -3022.5436892814      6.15e-04  
Finding J and K together
 Job number = 22, Threshold = 1.00E-08
Integral type ranges set in mkLRange.C for JobNum: 22  <1-21|1-21>
 MakeJK  time:  CPU      16.56 s  wall      18.11 s
 HF Exchange:              -139.17512402327958
 One-Electron:             -5283.85586080870235
 Total Coulomb:            1859.87516340968727
 Nuclear repulsion:        540.60946972772808
    5   -3022.5458209328      3.21e-04  
Finding J and K together
 Job number = 22, Threshold = 1.00E-08
Integral type ranges set in mkLRange.C for JobNum: 22  <1-21|1-21>
 MakeJK  time:  CPU      16.25 s  wall      18.75 s
 HF Exchange:              -139.17977331089236
 One-Electron:             -5283.88172451582705
 Total Coulomb:            1859.90561259268884
 Nuclear repulsion:        540.60946972772808
    6   -3022.5463516946      7.93e-05  
Finding J and K together
 Job number = 22, Threshold = 1.00E-08
Integral type ranges set in mkLRange.C for JobNum: 22  <1-21|1-21>
 MakeJK  time:  CPU      15.66 s  wall      17.91 s
 HF Exchange:              -139.17831781643005
 One-Electron:             -5283.86311326314717
 Total Coulomb:            1859.88553178588700
 Nuclear repulsion:        540.60946972772808
    7   -3022.5464155063      4.01e-05  
Finding J and K together
 Job number = 22, Threshold = 1.00E-08
Integral type ranges set in mkLRange.C for JobNum: 22  <1-21|1-21>
 MakeJK  time:  CPU      16.93 s  wall      17.70 s
 HF Exchange:              -139.17874281831286
 One-Electron:             -5283.86627344910085
 Total Coulomb:            1859.88911461219504
 Nuclear repulsion:        540.60946972772808
    8   -3022.5464295660      1.40e-05  
    9   -3022.5464319275      5.30e-06  Convergence criterion met
 ---------------------------------------
 SCF time:   CPU 140.47s  wall 155.00s 
 Total energy in the final basis set =    -3022.5464319275
 HF Exchange:              -139.17874281831286
 One-Electron:             -5283.86627344910085
 Total Coulomb:            1859.88911461219504
 Nuclear repulsion:        540.60946972772808
Wall  1 = 155
Clock 1 = 140.67893981933594
 ==================================================
                  Done GEN_SCFMAN                  
 ==================================================

Symmetry turned off temporarily

 --------------------------------------------------------------

                    Orbital Energies (a.u.)
 --------------------------------------------------------------

 Alpha MOs
 -- Occupied --
******* -65.190 -58.550 -58.548 -58.548 -26.365 -26.365 -26.364
-20.594 -11.568 -11.360  -9.870  -7.485  -7.475  -7.475  -3.225
 -3.220  -3.220  -3.208  -3.208  -1.764  -1.664  -1.664  -1.422
 -1.093  -0.962  -0.887  -0.854  -0.854  -0.809  -0.733  -0.733
 -0.711  -0.688  -0.688  -0.671  -0.669  -0.552  -0.550  -0.459
 -0.449  -0.448
 -- Virtual --
  0.036   0.063   0.064   0.083   0.103   0.114   0.118   0.123
  0.134   0.140   0.160   0.167   0.171   0.198   0.211   0.221
  0.253   0.295   0.299   0.312   0.324   0.344   0.359   0.362
  0.365   0.389   0.391   0.418   0.424   0.429   0.451   0.454
  0.466   0.489   0.503   0.504   0.513   0.551   0.571   0.579
  0.629   0.671   0.692   0.702   0.712   0.720   0.786   0.830
  0.833   0.839   0.869   0.883   1.006   1.007   1.062   1.075
  1.227   1.230   1.293   1.315   1.417   1.422   1.430   1.500
  1.520   1.530   1.619   1.657   1.668   1.679   1.687   1.695
  1.705   1.710   1.720   1.728   1.900   1.995   2.008   2.009
  2.085   2.089   2.108   2.178   2.181   2.309   2.318   2.359
  2.482   2.589   2.724   2.767   2.782   2.940   3.020   3.188
  3.236   3.270   3.272   3.301   3.707   3.791   3.858   4.088
  4.119   4.151   4.151   4.153   4.179   4.179   4.194   4.277
  4.277   4.293   4.546   4.548   4.555   4.639   4.639   4.682
  4.691   4.772   4.935   5.368   5.372   5.533   5.653   6.213
  6.865   6.882   6.938   6.945   6.948   6.968   6.999   7.208
  7.375   7.378   8.210   8.221   8.405  24.555  25.030  49.438
 51.607  68.697  68.698  68.761 293.888 293.899 294.1171028.372
 --------------------------------------------------------------

          Ground-State Mulliken Net Atomic Charges

     Atom                 Charge (a.u.)
  ----------------------------------------
      1 C                     0.159668
      2 Br                    0.138500
      3 F                    -0.115077
      4 F                    -0.105610
      5 F                    -0.113922
      6 O                    -0.297082
      7 C                     0.115795
      8 H                     0.116436
      9 H                     0.101292
  ----------------------------------------
  Sum of atomic charges =     0.000000

 -----------------------------------------------------------------
                    Cartesian Multipole Moments
 -----------------------------------------------------------------
    Charge (ESU x 10^10)
                 0.0000
    Dipole Moment (Debye)
         X      -2.7206      Y      -2.4913      Z       0.0026
       Tot       3.6890
    Quadrupole Moments (Debye-Ang)
        XX     -41.7687     XY       9.5856     YY     -51.0026
        XZ      -0.0073     YZ      -0.0023     ZZ     -51.8587
    Octopole Moments (Debye-Ang^2)
       XXX     -39.6685    XXY     -33.6266    XYY       1.3633
       YYY       1.6819    XXZ       0.0341    XYZ       0.1018
       YYZ       0.5604    XZZ       4.0916    YZZ       2.8574
       ZZZ      -0.5679
    Hexadecapole Moments (Debye-Ang^3)
      XXXX   -1135.3267   XXXY     117.1927   XXYY    -255.1940
      XYYY      -3.1107   YYYY    -155.5240   XXXZ       0.1131
      XXYZ       0.4554   XYYZ       0.9690   YYYZ      -0.3059
      XXZZ    -254.2986   XYZZ       0.1324   YYZZ     -46.0799
      XZZZ      -1.0801   YZZZ       0.1006   ZZZZ    -114.8690
 -----------------------------------------------------------------
 Mayer SCF Bond Order, atomic valence on the diagonal:

            1           2           3           4           5           6
    1   4.5059522   1.3056117   1.0571439   1.0734540   1.0614941   0.0134168
    2   1.3056117   0.9148098  -0.1304154  -0.1465011  -0.1332763  -0.0032182
    3   1.0571439  -0.1304154   0.9417097   0.0071143   0.0093128  -0.0005145
    4   1.0734540  -0.1465011   0.0071143   0.9445532   0.0062685  -0.0009312
    5   1.0614941  -0.1332763   0.0093128   0.0062685   0.9425810  -0.0004954
    6   0.0134168  -0.0032182  -0.0005145  -0.0009312  -0.0004954   1.8683284
    7  -0.0063339   0.0129013  -0.0008119   0.0042741  -0.0004868   1.8764025
    8  -0.0008517   0.0001489  -0.0001951   0.0010885  -0.0001621  -0.0114249
    9   0.0020173   0.0095587   0.0000756  -0.0002140  -0.0000737  -0.0049068
            7           8           9
    1  -0.0063339  -0.0008517   0.0020173
    2   0.0129013   0.0001489   0.0095587
    3  -0.0008119  -0.0001951   0.0000756
    4   0.0042741   0.0010885  -0.0002140
    5  -0.0004868  -0.0001621  -0.0000737
    6   1.8764025  -0.0114249  -0.0049068
    7   3.7900352   0.9521225   0.9519673
    8   0.9521225   0.9250044  -0.0157217
    9   0.9519673  -0.0157217   0.9427028


 JobOver = TRUE
Archival summary:
1\1\qciep03\SP\HF\BasisUnspecified\r13122\jcartus\ThuFeb112:22:192018ThuFeb112:22:192018\0\\#,HF,BasisUnspecified,\\0,1\Br\C,1,1.91929\F,2,1.32697,1,110.53\F,2,1.32789,1,110.485,3,120.053,0\F,2,1.32806,1,110.47,3,-120.029,0\O,1,2.95218,2,171.791,3,171.571,0\C,6,1.212,1,109.246,2,0.485146,0\H,7,1.09926,6,121.724,1,-179.815,0\H,7,1.1002,6,121.774,1,0.182999,0\\HF=-3022.54643\\@

 Total job time:  155.88s(wall), 141.38s(cpu) 
 Thu Feb  1 12:22:19 2018

        *************************************************************
        *                                                           *
        *  Thank you very much for using Q-Chem.  Have a nice day.  *
        *                                                           *
        *************************************************************


*** MISSION COMPLETED -- STARFLEET OUT ***

0 sent ACK to 0 
now end server 0 ... 
