Process 0 of 1 is on qciep03 - thread support 0
initial socket setup ...start
initial socket setup ...done 
now start server 0 ... 
qciep03.tugraz.at 127.0.1
Q-Chem Developer Version! Running on 127.0.1.*
                  Welcome to Q-Chem
     A Quantum Leap Into The Future Of Chemistry


 Q-Chem 5.0, Q-Chem, Inc., Pleasanton, CA (2017)

 Yihan Shao,  Zhengting Gan,  E. Epifanovsky,  A. T. B. Gilbert,  M. Wormit,  
 J. Kussmann,  A. W. Lange,  A. Behn,  Jia Deng,  Xintian Feng,  D. Ghosh,  
 M. Goldey,  P. R. Horn,  L. D. Jacobson,  I. Kaliman,  T. Kus,  A. Landau,  
 Jie Liu,  E. I. Proynov,  R. M. Richard,  R. P. Steele,  E. J. Sundstrom,  
 H. L. Woodcock III,  P. M. Zimmerman,  D. Zuev,  B. Albrecht,  E. Alguire,  
 S. A. Baeppler,  D. Barton,  Z. Benda,  Y. A. Bernard,  E. J. Berquist,  
 K. B. Bravaya,  H. Burton,  D. Casanova,  Chun-Min Chang,  Yunqing Chen,  
 A. Chien,  K. D. Closser,  M. P. Coons,  S. Dasgupta,  A. L. Dempwolff,  
 M. Diedenhofen,  Hainam Do,  R. G. Edgar,  Po-Tung Fang,  S. Fatehi,  
 Qingguo Feng,  J. Fosso-Tande,  Qinghui Ge,  A. Ghysels,  G. Gidofalvi,  
 J. Gomes,  J. Gonthier,  A. Gunina,  M. W. D. Hanson-Heine,  
 P. H. P. Harbach,  A. W. Hauser,  J. E. Herr,  E. G. Hohenstein,  
 Z. C. Holden,  Kerwin Hui,  T.-C. Jagau,  Hyunjun Ji,  B. Kaduk,  
 K. Khistyaev,  Jaehoon Kim,  P. Klunzinger,  K. Koh,  D. Kosenkov,  
 L. Koulias,  T. Kowalczyk,  C. M. Krauter,  A. Kunitsa,  Ka Un Lao,  
 A. Laurent,  K. V. Lawler,  Joonho Lee,  D. Lefrancois,  S. Lehtola,  
 D. S. Levine,  Yi-Pei Li,  You-Sheng Lin,  Fenglai Liu,  E. Livshits,  
 A. Luenser,  P. Manohar,  E. Mansoor,  S. F. Manzer,  Shan-Ping Mao,  
 Yuezhi Mao,  N. Mardirossian,  A. V. Marenich,  T. Markovich,  
 L. A. Martinez-Martinez,  S. A. Maurer,  N. J. Mayhall,  S. C. McKenzie,  
 J.-M. Mewes,  A. F. Morrison,  J. W. Mullinax,  K. Nanda,  
 T. S. Nguyen-Beck,  R. Olivares-Amaya,  J. A. Parkhill,  T. M. Perrine,  
 F. Plasser,  S. Prager,  A. Prociuk,  E. Ramos,  D. R. Rehn,  F. Rob,  
 M. Schneider,  N. Sergueev,  S. M. Sharada,  S. Sharma,  D. W. Small,  
 T. Stauch,  T. Stein,  Yu-Chuan Su,  A. J. W. Thom,  A. Tkatchenko,  
 T. Tsuchimochi,  L. Vogt,  O. Vydrov,  M. A. Watson,  J. Wenzel,  
 M. de Wergifosse,  T. A. Wesolowski,  A. White,  J. Witte,  A. Yamada,  
 Jun Yang,  K. Yao,  S. Yeganeh,  S. R. Yost,  Zhi-Qiang You,  A. Zech,  
 Igor Ying Zhang,  Xing Zhang,  Yan Zhao,  Ying Zhu,  B. R. Brooks,  
 G. K. L. Chan,  C. J. Cramer,  M. S. Gordon,  W. J. Hehre,  A. Klamt,  
 M. W. Schmidt,  C. D. Sherrill,  D. G. Truhlar,  A. Aspuru-Guzik,  R. Baer,  
 A. T. Bell,  N. A. Besley,  Jeng-Da Chai,  R. A. DiStasio Jr.,  A. Dreuw,  
 B. D. Dunietz,  T. R. Furlani,  Chao-Ping Hsu,  Yousung Jung,  Jing Kong,  
 D. S. Lambrecht,  WanZhen Liang,  C. Ochsenfeld,  V. A. Rassolov,  
 L. V. Slipchenko,  J. E. Subotnik,  T. Van Voorhis,  J. M. Herbert,  
 A. I. Krylov,  P. M. W. Gill,  M. Head-Gordon

 Contributors to earlier versions of Q-Chem not listed above: 
 R. D. Adamson,  B. Austin,  J. Baker,  G. J. O. Beran,  K. Brandhorst,  
 S. T. Brown,  E. F. C. Byrd,  A. K. Chakraborty,  C.-L. Cheng,  
 Siu Hung Chien,  D. M. Chipman,  D. L. Crittenden,  H. Dachsel,  
 R. J. Doerksen,  A. D. Dutoi,  L. Fusti-Molnar,  W. A. Goddard III,  
 A. Golubeva-Zadorozhnaya,  S. R. Gwaltney,  G. Hawkins,  A. Heyden,  
 S. Hirata,  G. Kedziora,  F. J. Keil,  C. Kelley,  Jihan Kim,  R. A. King,  
 R. Z. Khaliullin,  P. P. Korambath,  W. Kurlancheek,  A. M. Lee,  M. S. Lee,  
 S. V. Levchenko,  Ching Yeh Lin,  D. Liotard,  R. C. Lochan,  I. Lotan,  
 P. E. Maslen,  N. Nair,  D. P. O'Neill,  D. Neuhauser,  E. Neuscamman,  
 C. M. Oana,  R. Olson,  B. Peters,  R. Peverati,  P. A. Pieniazek,  
 Y. M. Rhee,  J. Ritchie,  M. A. Rohrdanz,  E. Rosta,  N. J. Russ,  
 H. F. Schaefer III,  N. E. Schultz,  N. Shenvi,  A. C. Simmonett,  A. Sodt,  
 D. Stuck,  K. S. Thanthiriwatte,  V. Vanovschi,  Tao Wang,  A. Warshel,  
 C. F. Williams,  Q. Wu,  X. Xu,  W. Zhang

 Please cite Q-Chem as follows:
 Y. Shao et al., Mol. Phys. 113, 184-215 (2015)
 DOI: 10.1080/00268976.2014.952696

 Q-Chem 5.0.2 for Intel X86 EM64T Linux

 Parts of Q-Chem use Armadillo 5.200.1 (Boston Tea Smuggler).
 http://arma.sourceforge.net/

 Q-Chem begins on Thu Jan 25 17:47:06 2018  


Host: 0

     Scratch files written to /home/jcartus/scratch/Benzene-HCN-complex_mono1.dir//
 Using version located at /usr/local/qchem/bin/qchem

 Parallel job on  1  processors

Total Memory Limit in MB = 2000
Mega-Array Size in MB = 192

Checking the input file for inconsistencies... 	...done.
Finally everything over in PARseQInput

--------------------------------------------------------------
User input:
--------------------------------------------------------------
$rem
SCF_PRINT                     1
BASIS                         6-311++g**
SCF_SAVE_MATRICES             1
SCF_CONVERGENCE               5
SCF_FINAL_PRINT               1
METHOD                        hf
JOBTYPE                       sp
$end

$molecule
0 1
N    -0.0034118    3.5353926    0.0
C    0.0751963    2.370704    0.0
H    0.1476295    1.3052847    0.0
$end


--------------------------------------------------------------
 ----------------------------------------------------------------
             Standard Nuclear Orientation (Angstroms)
    I     Atom           X                Y                Z
 ----------------------------------------------------------------
    1      N      -0.0000000000    -0.0000395593     0.6599462018
    2      C      -0.0000000000     0.0000966036    -0.5073921167
    3      H       0.0000000000    -0.0003027065    -1.5752707118
 ----------------------------------------------------------------
 Molecular Point Group                 C*v   NOp =***
 Largest Abelian Subgroup              C2v   NOp =  1
 Nuclear Repulsion Energy =    23.6698793299 hartrees
 There are        7 alpha and        7 beta electrons
 Requested basis set is 6-311++G(d,p)
 There are 17 shells and 51 basis functions

 Total QAlloc Memory Limit   2000 MB
 Mega-Array Size       188 MB
 MEM_STATIC part       192 MB

finished with qalloc call

                       Distance Matrix (Angstroms)
             N (  1)   C (  2)
   C (  2)  1.167338
   H (  3)  2.235217  1.067879

 Job number = 2, Threshold = 1.00E-08
Integral type ranges set in mkLRange.C for JobNum: 2  <1-21|1-21>
Symmetry turned off temporarily
 Using the largest function pair in Schwarz integrals
Total number of integrals generated =           25476
Symmetry turned back on
 A cutoff of  1.0D-08 yielded    153 shell pairs
 There are      1397 function pairs (      1512 Cartesian)
 Job number = 11, Threshold = 1.00E-08
Integral type ranges set in mkLRange.C for JobNum: 11  <1-21|22-22>
Total number of integrals generated =            4536
 Smallest overlap matrix eigenvalue = 1.42E-03
 Multipole matrices computed through 2nd order

 Scale SEOQF with 1.000000e-01/1.000000e-01/1.000000e-01

 Standard Electronic Orientation quadrupole field applied
 Nucleus-field energy     =    -0.0000000008 hartrees
 ENuRep (before)= 23.6698793299
 ENucField = -0.0000000008
 ENuRep (after) = 23.6698793292
 Guess from superposition of atomic densities
 Warning:  Energy on first SCF cycle will be non-variational
 SAD guess density has 14.000000 electrons

 ==================================================
    GEN_SCFMAN: A general SCF calculation manager  
                                                   
    Authors:                                       
        -- Eric Jon Sundstrom 2008-2014            
        -- Paul Horn 2010-2015                     
        -- Yuezhi Mao 2012-                        
        -- Dmitri Zuev 2014                        
        -- Alec White 2015-                        
        -- David Stuck 2015                        
        -- Shaama M.S. 2015                        
        -- Shane Yost 2015-                         
        -- Joonho Lee 2016-                        
        -- David Small 2016-                       
        -- Daniel Levine 2016-                     
        -- Susi Lehtola 2017-                      
        -- Hugh Burton 2017-                       
 ==================================================
 Hartree-Fock
Finding J and K together
 Job number = 22, Threshold = 1.00E-08
Integral type ranges set in mkLRange.C for JobNum: 22  <1-21|1-21>
 MakeJK  time:  CPU       0.20 s  wall       0.24 s
 HF Exchange:              -11.90639592081087
 One-Electron:             -171.16289031690224
 Total Coulomb:             66.37445282878041
 Nuclear repulsion:         23.66987932918144
 A restricted SCF calculation will be
 performed using DIIS
 SCF converges when DIIS error is below 1.0e-05
 ---------------------------------------
  Cycle       Energy         DIIS error
 ---------------------------------------
Finding J and K together
 Job number = 22, Threshold = 1.00E-08
Integral type ranges set in mkLRange.C for JobNum: 22  <1-21|1-21>
 MakeJK  time:  CPU       0.28 s  wall       0.30 s
 HF Exchange:              -12.03772918665306
 One-Electron:             -172.23297636839933
 Total Coulomb:             67.75535570408560
 Nuclear repulsion:         23.66987932918144
    1     -93.0249540798      8.63e-02  
Finding J and K together
 Job number = 22, Threshold = 1.00E-08
Integral type ranges set in mkLRange.C for JobNum: 22  <1-21|1-21>
 MakeJK  time:  CPU       0.28 s  wall       0.30 s
 HF Exchange:              -11.96848916069527
 One-Electron:             -171.72803667337925
 Total Coulomb:             67.16144019320019
 Nuclear repulsion:         23.66987932918144
    2     -92.8454705218      1.14e-02  
Finding J and K together
 Job number = 22, Threshold = 1.00E-08
Integral type ranges set in mkLRange.C for JobNum: 22  <1-21|1-21>
 MakeJK  time:  CPU       0.29 s  wall       0.30 s
 HF Exchange:              -12.02025051645074
 One-Electron:             -172.10455368291690
 Total Coulomb:             67.55841524075416
 Nuclear repulsion:         23.66987932918144
    3     -92.8652063117      1.08e-02  
Finding J and K together
 Job number = 22, Threshold = 1.00E-08
Integral type ranges set in mkLRange.C for JobNum: 22  <1-21|1-21>
 MakeJK  time:  CPU       0.29 s  wall       0.31 s
 HF Exchange:              -12.01762524939670
 One-Electron:             -172.06461737335027
 Total Coulomb:             67.51514045480357
 Nuclear repulsion:         23.66987932918144
    4     -92.8965096294      1.01e-03  
Finding J and K together
 Job number = 22, Threshold = 1.00E-08
Integral type ranges set in mkLRange.C for JobNum: 22  <1-21|1-21>
 MakeJK  time:  CPU       0.28 s  wall       0.31 s
 HF Exchange:              -12.01925724068840
 One-Electron:             -172.07816424377737
 Total Coulomb:             67.53026627111336
 Nuclear repulsion:         23.66987932918144
    5     -92.8972228388      2.71e-04  
Finding J and K together
 Job number = 22, Threshold = 1.00E-08
Integral type ranges set in mkLRange.C for JobNum: 22  <1-21|1-21>
 MakeJK  time:  CPU       0.28 s  wall       0.29 s
 HF Exchange:              -12.01863487003119
 One-Electron:             -172.07335701306300
 Total Coulomb:             67.52483197013184
 Nuclear repulsion:         23.66987932918144
    6     -92.8972758842      9.22e-05  
Finding J and K together
 Job number = 22, Threshold = 1.00E-08
Integral type ranges set in mkLRange.C for JobNum: 22  <1-21|1-21>
 MakeJK  time:  CPU       0.29 s  wall       0.29 s
 HF Exchange:              -12.01876040961942
 One-Electron:             -172.07468226548900
 Total Coulomb:             67.52628238181428
 Nuclear repulsion:         23.66987932918144
    7     -92.8972805838      3.20e-05  
    8     -92.8972809641      3.40e-06  Convergence criterion met
 ---------------------------------------
 SCF time:   CPU 2.25s  wall 3.00s 
 Total energy in the final basis set =      -92.8972809641
 HF Exchange:              -12.01876040961942
 One-Electron:             -172.07468226548900
 Total Coulomb:             67.52628238181428
 Nuclear repulsion:         23.66987932918144
Wall  1 = 3
Clock 1 = 2.26044011116028
 ==================================================
                  Done GEN_SCFMAN                  
 ==================================================

Symmetry turned off temporarily

 --------------------------------------------------------------

                    Orbital Energies (a.u.)
 --------------------------------------------------------------

 Alpha MOs
 -- Occupied --
-15.608 -11.300  -1.235  -0.815  -0.584  -0.494  -0.494
 -- Virtual --
  0.036   0.087   0.090   0.090   0.168   0.172   0.172   0.208
  0.274   0.274   0.282   0.338   0.533   0.703   0.703   0.757
  0.934   0.968   1.061   1.061   1.273   1.393   1.393   1.464
  1.497   1.497   2.067   2.067   2.226   2.379   2.379   2.824
  2.968   2.968   3.200   3.229   3.229   3.451   3.754   4.388
  4.388   5.023  25.444  37.146
 --------------------------------------------------------------

          Ground-State Mulliken Net Atomic Charges

     Atom                 Charge (a.u.)
  ----------------------------------------
      1 N                    -0.228175
      2 C                     0.016279
      3 H                     0.211895
  ----------------------------------------
  Sum of atomic charges =    -0.000000

 -----------------------------------------------------------------
                    Cartesian Multipole Moments
 -----------------------------------------------------------------
    Charge (ESU x 10^10)
                -0.0000
    Dipole Moment (Debye)
         X       0.0000      Y      -0.0003      Z      -3.3165
       Tot       3.3165
    Quadrupole Moments (Debye-Ang)
        XX     -12.0413     XY      -0.0000     YY     -12.0413
        XZ       0.0000     YZ       0.0006     ZZ      -9.7013
    Octopole Moments (Debye-Ang^2)
       XXX       0.0000    XXY      -0.0002    XYY       0.0000
       YYY      -0.0007    XXZ      -0.3904    XYZ       0.0000
       YYZ      -0.3904    XZZ       0.0000    YZZ      -0.0015
       ZZZ      -8.2713
    Hexadecapole Moments (Debye-Ang^3)
      XXXX     -12.5129   XXXY      -0.0000   XXYY      -4.1710
      XYYY      -0.0000   YYYY     -12.5129   XXXZ       0.0000
      XXYZ       0.0001   XYYZ       0.0000   YYYZ       0.0004
      XXZZ      -9.4183   XYZZ      -0.0000   YYZZ      -9.4183
      XZZZ       0.0000   YZZZ       0.0030   ZZZZ     -35.7924
 -----------------------------------------------------------------
 Mayer SCF Bond Order, atomic valence on the diagonal:

            1           2           3
    1   2.8164477   2.7853012   0.0311465
    2   2.7853012   3.7202476   0.9349465
    3   0.0311465   0.9349465   0.9660930


 JobOver = TRUE
Archival summary:
1\1\qciep03\SP\HF\BasisUnspecified\111\jcartus\ThuJan2517:47:092018ThuJan2517:47:092018\0\\#,HF,BasisUnspecified,\\0,1\C\H,1,1.06788\N,1,1.16734,2,179.972\\HF=-92.897281\\@

 Total job time:  2.78s(wall), 2.38s(cpu) 
 Thu Jan 25 17:47:09 2018

        *************************************************************
        *                                                           *
        *  Thank you very much for using Q-Chem.  Have a nice day.  *
        *                                                           *
        *************************************************************


*** MISSION COMPLETED -- STARFLEET OUT ***

0 sent ACK to 0 
now end server 0 ... 
