Process 0 of 1 is on qciep03 - thread support 0
initial socket setup ...start
initial socket setup ...done 
now start server 0 ... 
qciep03.tugraz.at 127.0.1
Q-Chem Developer Version! Running on 127.0.1.*
                  Welcome to Q-Chem
     A Quantum Leap Into The Future Of Chemistry


 Q-Chem 5.0, Q-Chem, Inc., Pleasanton, CA (2017)

 Yihan Shao,  Zhengting Gan,  E. Epifanovsky,  A. T. B. Gilbert,  M. Wormit,  
 J. Kussmann,  A. W. Lange,  A. Behn,  Jia Deng,  Xintian Feng,  D. Ghosh,  
 M. Goldey,  P. R. Horn,  L. D. Jacobson,  I. Kaliman,  T. Kus,  A. Landau,  
 Jie Liu,  E. I. Proynov,  R. M. Richard,  R. P. Steele,  E. J. Sundstrom,  
 H. L. Woodcock III,  P. M. Zimmerman,  D. Zuev,  B. Albrecht,  E. Alguire,  
 S. A. Baeppler,  D. Barton,  Z. Benda,  Y. A. Bernard,  E. J. Berquist,  
 K. B. Bravaya,  H. Burton,  D. Casanova,  Chun-Min Chang,  Yunqing Chen,  
 A. Chien,  K. D. Closser,  M. P. Coons,  S. Dasgupta,  A. L. Dempwolff,  
 M. Diedenhofen,  Hainam Do,  R. G. Edgar,  Po-Tung Fang,  S. Fatehi,  
 Qingguo Feng,  J. Fosso-Tande,  Qinghui Ge,  A. Ghysels,  G. Gidofalvi,  
 J. Gomes,  J. Gonthier,  A. Gunina,  M. W. D. Hanson-Heine,  
 P. H. P. Harbach,  A. W. Hauser,  J. E. Herr,  E. G. Hohenstein,  
 Z. C. Holden,  Kerwin Hui,  T.-C. Jagau,  Hyunjun Ji,  B. Kaduk,  
 K. Khistyaev,  Jaehoon Kim,  P. Klunzinger,  K. Koh,  D. Kosenkov,  
 L. Koulias,  T. Kowalczyk,  C. M. Krauter,  A. Kunitsa,  Ka Un Lao,  
 A. Laurent,  K. V. Lawler,  Joonho Lee,  D. Lefrancois,  S. Lehtola,  
 D. S. Levine,  Yi-Pei Li,  You-Sheng Lin,  Fenglai Liu,  E. Livshits,  
 A. Luenser,  P. Manohar,  E. Mansoor,  S. F. Manzer,  Shan-Ping Mao,  
 Yuezhi Mao,  N. Mardirossian,  A. V. Marenich,  T. Markovich,  
 L. A. Martinez-Martinez,  S. A. Maurer,  N. J. Mayhall,  S. C. McKenzie,  
 J.-M. Mewes,  A. F. Morrison,  J. W. Mullinax,  K. Nanda,  
 T. S. Nguyen-Beck,  R. Olivares-Amaya,  J. A. Parkhill,  T. M. Perrine,  
 F. Plasser,  S. Prager,  A. Prociuk,  E. Ramos,  D. R. Rehn,  F. Rob,  
 M. Schneider,  N. Sergueev,  S. M. Sharada,  S. Sharma,  D. W. Small,  
 T. Stauch,  T. Stein,  Yu-Chuan Su,  A. J. W. Thom,  A. Tkatchenko,  
 T. Tsuchimochi,  L. Vogt,  O. Vydrov,  M. A. Watson,  J. Wenzel,  
 M. de Wergifosse,  T. A. Wesolowski,  A. White,  J. Witte,  A. Yamada,  
 Jun Yang,  K. Yao,  S. Yeganeh,  S. R. Yost,  Zhi-Qiang You,  A. Zech,  
 Igor Ying Zhang,  Xing Zhang,  Yan Zhao,  Ying Zhu,  B. R. Brooks,  
 G. K. L. Chan,  C. J. Cramer,  M. S. Gordon,  W. J. Hehre,  A. Klamt,  
 M. W. Schmidt,  C. D. Sherrill,  D. G. Truhlar,  A. Aspuru-Guzik,  R. Baer,  
 A. T. Bell,  N. A. Besley,  Jeng-Da Chai,  R. A. DiStasio Jr.,  A. Dreuw,  
 B. D. Dunietz,  T. R. Furlani,  Chao-Ping Hsu,  Yousung Jung,  Jing Kong,  
 D. S. Lambrecht,  WanZhen Liang,  C. Ochsenfeld,  V. A. Rassolov,  
 L. V. Slipchenko,  J. E. Subotnik,  T. Van Voorhis,  J. M. Herbert,  
 A. I. Krylov,  P. M. W. Gill,  M. Head-Gordon

 Contributors to earlier versions of Q-Chem not listed above: 
 R. D. Adamson,  B. Austin,  J. Baker,  G. J. O. Beran,  K. Brandhorst,  
 S. T. Brown,  E. F. C. Byrd,  A. K. Chakraborty,  C.-L. Cheng,  
 Siu Hung Chien,  D. M. Chipman,  D. L. Crittenden,  H. Dachsel,  
 R. J. Doerksen,  A. D. Dutoi,  L. Fusti-Molnar,  W. A. Goddard III,  
 A. Golubeva-Zadorozhnaya,  S. R. Gwaltney,  G. Hawkins,  A. Heyden,  
 S. Hirata,  G. Kedziora,  F. J. Keil,  C. Kelley,  Jihan Kim,  R. A. King,  
 R. Z. Khaliullin,  P. P. Korambath,  W. Kurlancheek,  A. M. Lee,  M. S. Lee,  
 S. V. Levchenko,  Ching Yeh Lin,  D. Liotard,  R. C. Lochan,  I. Lotan,  
 P. E. Maslen,  N. Nair,  D. P. O'Neill,  D. Neuhauser,  E. Neuscamman,  
 C. M. Oana,  R. Olson,  B. Peters,  R. Peverati,  P. A. Pieniazek,  
 Y. M. Rhee,  J. Ritchie,  M. A. Rohrdanz,  E. Rosta,  N. J. Russ,  
 H. F. Schaefer III,  N. E. Schultz,  N. Shenvi,  A. C. Simmonett,  A. Sodt,  
 D. Stuck,  K. S. Thanthiriwatte,  V. Vanovschi,  Tao Wang,  A. Warshel,  
 C. F. Williams,  Q. Wu,  X. Xu,  W. Zhang

 Please cite Q-Chem as follows:
 Y. Shao et al., Mol. Phys. 113, 184-215 (2015)
 DOI: 10.1080/00268976.2014.952696

 Q-Chem 5.0.2 for Intel X86 EM64T Linux

 Parts of Q-Chem use Armadillo 5.200.1 (Boston Tea Smuggler).
 http://arma.sourceforge.net/

 Q-Chem begins on Thu Feb  1 12:06:29 2018  


Host: 0

     Scratch files written to /home/jcartus/scratch/30_CF3I-ben_mono1.dir//
 Using version located at /usr/local/qchem/bin/qchem

 Parallel job on  1  processors

Total Memory Limit in MB = 2000
Mega-Array Size in MB = 192

Checking the input file for inconsistencies... 	...done.
Finally everything over in PARseQInput

--------------------------------------------------------------
User input:
--------------------------------------------------------------
$rem
SCF_PRINT                     1
BASIS                         6-311++g**
SCF_SAVE_MATRICES             1
SCF_CONVERGENCE               5
SCF_FINAL_PRINT               1
METHOD                        hf
JOBTYPE                       sp
$end

$molecule
0 1
H    -0.034768801    0.294585208    0.057187563
C    -0.017014316    0.26196041    1.141050258
C    1.201240991    0.285824105    1.82004202
C    1.223051195    0.249206224    3.21325633
C    0.027949888    0.188858607    3.92796426
C    -1.189662929    0.164642236    3.250361662
C    -1.212924754    0.201264985    1.856906008
H    2.130707182    0.33262652    1.263780775
H    2.169947323    0.266273588    3.740739601
H    0.045570678    0.158814598    5.011482817
H    -2.118962097    0.116212797    3.806470317
H    -2.160018595    0.18369422    1.329378876
$end


--------------------------------------------------------------
 ----------------------------------------------------------------
             Standard Nuclear Orientation (Angstroms)
    I     Atom           X                Y                Z
 ----------------------------------------------------------------
    1      H      -0.4974317588     2.4286026688    -0.0033703639
    2      C      -0.2799056709     1.3661498780     0.0004255812
    3      C      -1.3231934837     0.4402471949     0.0002188388
    4      C      -1.0428053391    -0.9251263570    -0.0002501423
    5      C       0.2796587631    -1.3653592055    -0.0006129892
    6      C       1.3226329975    -0.4409582446    -0.0000694247
    7      C       1.0436090072     0.9249650453     0.0003511271
    8      H      -2.3517969887     0.7830285944     0.0006438121
    9      H      -1.8537059061    -1.6445571637     0.0010758186
   10      H       0.4971390191    -2.4273980194     0.0006093786
   11      H       2.3511050374    -0.7836578048     0.0011409633
   12      H       1.8547129518     1.6444718588    -0.0004775539
 ----------------------------------------------------------------
 Molecular Point Group                 C1    NOp =  1
 Largest Abelian Subgroup              C1    NOp =  1
 Nuclear Repulsion Energy =   203.5594957549 hartrees
 There are       21 alpha and       21 beta electrons
 Requested basis set is 6-311++G(d,p)
 There are 66 shells and 174 basis functions

 Total QAlloc Memory Limit   2000 MB
 Mega-Array Size       188 MB
 MEM_STATIC part       192 MB

finished with qalloc call

                       Distance Matrix (Angstroms)
             H (  1)   C (  2)   C (  3)   C (  4)   C (  5)   C (  6)
   C (  2)  1.084499
   C (  3)  2.153010  1.394900
   C (  4)  3.397785  2.414946  1.393866
   C (  5)  3.872728  2.788235  2.414405  1.393814
   C (  6)  3.398092  2.415320  2.788713  2.414481  1.393669
   C (  7)  2.153078  1.395111  2.415927  2.788541  2.414375  1.394131
   H (  8)  2.479234  2.152386  1.084216  2.152035  3.397077  3.872929
   H (  9)  4.293033  3.397235  2.151245  1.084040  2.151557  3.396731
   H ( 10)  4.956806  3.872313  3.396616  2.151337  1.084078  2.151135
   H ( 11)  4.293344  3.397630  3.872779  3.396858  2.151574  1.084066
   H ( 12)  2.479406  2.152687  3.398418  3.872783  3.397040  2.152238
             C (  7)   H (  8)   H (  9)   H ( 10)   H ( 11)
   H (  8)  3.398371
   H (  9)  3.872580  2.478158
   H ( 10)  3.396611  4.292234  2.477763
   H ( 11)  2.151497  4.956994  4.292037  2.477715
   H ( 12)  1.084242  4.293811  4.956822  4.292218  2.478351

 Job number = 2, Threshold = 1.00E-08
Integral type ranges set in mkLRange.C for JobNum: 2  <1-21|1-21>
Symmetry turned off temporarily
 Using the largest function pair in Schwarz integrals
Total number of integrals generated =          233997
Symmetry turned back on
 A cutoff of  1.0D-08 yielded   2055 shell pairs
 There are     14694 function pairs (     15765 Cartesian)
 Job number = 11, Threshold = 1.00E-08
Integral type ranges set in mkLRange.C for JobNum: 11  <1-21|22-22>
Total number of integrals generated =          189180
 Smallest overlap matrix eigenvalue = 1.07E-06

 Q-Chem warning in module /usr/local/qchem/stvman/mkSTV.C, line 295:

 Overlap eigenvalue is smaller than square root of threshold

 Multipole matrices computed through 2nd order

 Scale SEOQF with 1.000000e-01/1.000000e-01/1.000000e-01

 Standard Electronic Orientation quadrupole field applied
 Nucleus-field energy     =     0.0000000057 hartrees
 ENuRep (before)= 203.5594957549
 ENucField = 0.0000000057
 ENuRep (after) = 203.5594957607
 Guess from superposition of atomic densities
 Warning:  Energy on first SCF cycle will be non-variational
 SAD guess density has 42.000000 electrons

 ==================================================
    GEN_SCFMAN: A general SCF calculation manager  
                                                   
    Authors:                                       
        -- Eric Jon Sundstrom 2008-2014            
        -- Paul Horn 2010-2015                     
        -- Yuezhi Mao 2012-                        
        -- Dmitri Zuev 2014                        
        -- Alec White 2015-                        
        -- David Stuck 2015                        
        -- Shaama M.S. 2015                        
        -- Shane Yost 2015-                         
        -- Joonho Lee 2016-                        
        -- David Small 2016-                       
        -- Daniel Levine 2016-                     
        -- Susi Lehtola 2017-                      
        -- Hugh Burton 2017-                       
 ==================================================
 Hartree-Fock
Finding J and K together
 Job number = 22, Threshold = 1.00E-08
Integral type ranges set in mkLRange.C for JobNum: 22  <1-21|1-21>
 MakeJK  time:  CPU       4.38 s  wall       4.77 s
 HF Exchange:              -34.13827948587758
 One-Electron:             -709.09655127865562
 Total Coulomb:            306.43876179223514
 Nuclear repulsion:        203.55949576065370
 A restricted SCF calculation will be
 performed using DIIS
 SCF converges when DIIS error is below 1.0e-05
 ---------------------------------------
  Cycle       Energy         DIIS error
 ---------------------------------------
Finding J and K together
 Job number = 22, Threshold = 1.00E-08
Integral type ranges set in mkLRange.C for JobNum: 22  <1-21|1-21>
 MakeJK  time:  CPU      14.35 s  wall      14.93 s
 HF Exchange:              -33.15924766239390
 One-Electron:             -713.88159366070147
 Total Coulomb:            312.78937725232566
 Nuclear repulsion:        203.55949576065370
    1    -233.2365732116      5.17e-02  
Finding J and K together
 Job number = 22, Threshold = 1.00E-08
Integral type ranges set in mkLRange.C for JobNum: 22  <1-21|1-21>
 MakeJK  time:  CPU      14.84 s  wall      15.00 s
 HF Exchange:              -33.20402785093644
 One-Electron:             -713.09479676977867
 Total Coulomb:            311.98814894885129
 Nuclear repulsion:        203.55949576065370
    2    -230.6919683101      3.32e-03  
Finding J and K together
 Job number = 22, Threshold = 1.00E-08
Integral type ranges set in mkLRange.C for JobNum: 22  <1-21|1-21>
 MakeJK  time:  CPU      14.76 s  wall      15.43 s
 HF Exchange:              -33.25919777721818
 One-Electron:             -713.73835392189380
 Total Coulomb:            312.68242360273365
 Nuclear repulsion:        203.55949576065370
    3    -230.7511799112      9.05e-04  
Finding J and K together
 Job number = 22, Threshold = 1.00E-08
Integral type ranges set in mkLRange.C for JobNum: 22  <1-21|1-21>
 MakeJK  time:  CPU      16.74 s  wall      17.60 s
 HF Exchange:              -33.24510720541647
 One-Electron:             -713.44786701094370
 Total Coulomb:            312.37734769460013
 Nuclear repulsion:        203.55949576065370
    4    -230.7556323357      3.47e-04  
Finding J and K together
 Job number = 22, Threshold = 1.00E-08
Integral type ranges set in mkLRange.C for JobNum: 22  <1-21|1-21>
 MakeJK  time:  CPU      16.40 s  wall      16.67 s
 HF Exchange:              -33.24616619102974
 One-Electron:             -713.46001838990105
 Total Coulomb:            312.39054746133240
 Nuclear repulsion:        203.55949576065370
    5    -230.7561307611      3.45e-05  
    6    -230.7561413589      6.50e-06  Convergence criterion met
 ---------------------------------------
 SCF time:   CPU 82.39s  wall 85.00s 
 Total energy in the final basis set =     -230.7561413589
 HF Exchange:              -33.24616619102974
 One-Electron:             -713.46001838990105
 Total Coulomb:            312.39054746133240
 Nuclear repulsion:        203.55949576065370
Wall  1 = 85
Clock 1 = 82.54595184326172
 ==================================================
                  Done GEN_SCFMAN                  
 ==================================================

Symmetry turned off temporarily

 --------------------------------------------------------------

                    Orbital Energies (a.u.)
 --------------------------------------------------------------

 Alpha MOs
 -- Occupied --
-11.239 -11.238 -11.238 -11.237 -11.237 -11.236  -1.152  -1.017
 -1.016  -0.825  -0.825  -0.711  -0.644  -0.621  -0.590  -0.589
 -0.502  -0.496  -0.496  -0.337  -0.337
 -- Virtual --
  0.042   0.049   0.049   0.066   0.066   0.088   0.109   0.109
  0.129   0.153   0.153   0.158   0.163   0.181   0.181   0.183
  0.183   0.192   0.209   0.212   0.212   0.216   0.216   0.218
  0.228   0.228   0.250   0.250   0.289   0.289   0.303   0.334
  0.334   0.369   0.408   0.408   0.430   0.430   0.440   0.498
  0.498   0.509   0.509   0.604   0.609   0.715   0.723   0.723
  0.728   0.750   0.751   0.751   0.758   0.758   0.797   0.820
  0.820   0.886   0.940   0.940   0.951   0.951   0.975   1.016
  1.016   1.018   1.059   1.059   1.106   1.121   1.121   1.130
  1.169   1.218   1.218   1.249   1.323   1.323   1.391   1.391
  1.523   1.556   1.711   1.786   1.786   1.796   1.826   1.844
  1.845   1.907   1.907   1.933   1.933   1.990   2.054   2.054
  2.103   2.103   2.129   2.236   2.237   2.239   2.248   2.248
  2.296   2.346   2.346   2.377   2.378   2.638   2.663   2.742
  2.742   2.743   2.814   2.814   2.960   2.960   2.989   2.995
  3.022   3.022   3.046   3.046   3.058   3.090   3.191   3.191
  3.263   3.293   3.293   3.326   3.326   3.481   3.548   3.775
  3.775   3.905   3.905   3.919   4.076   4.405   4.406   4.496
  4.573   4.573   5.278  24.747  25.135  25.136  25.258  25.259
 25.369
 --------------------------------------------------------------

          Ground-State Mulliken Net Atomic Charges

     Atom                 Charge (a.u.)
  ----------------------------------------
      1 H                     0.193469
      2 C                    -0.193344
      3 C                    -0.193651
      4 C                    -0.193193
      5 C                    -0.192774
      6 C                    -0.193296
      7 C                    -0.193611
      8 H                     0.193347
      9 H                     0.193228
     10 H                     0.193200
     11 H                     0.193245
     12 H                     0.193380
  ----------------------------------------
  Sum of atomic charges =    -0.000000

 -----------------------------------------------------------------
                    Cartesian Multipole Moments
 -----------------------------------------------------------------
    Charge (ESU x 10^10)
                -0.0000
    Dipole Moment (Debye)
         X       0.0001      Y      -0.0009      Z      -0.0003
       Tot       0.0010
    Quadrupole Moments (Debye-Ang)
        XX     -31.9245     XY       0.0001     YY     -31.9296
        XZ       0.0003     YZ      -0.0153     ZZ     -41.3297
    Octopole Moments (Debye-Ang^2)
       XXX       0.0007    XXY       0.0014    XYY      -0.0004
       YYY       0.0039    XXZ       0.0124    XYZ       0.0021
       YYZ      -0.0155    XZZ       0.0009    YZZ      -0.0115
       ZZZ      -0.0006
    Hexadecapole Moments (Debye-Ang^3)
      XXXX    -270.7965   XXXY       0.0016   XXYY     -90.2559
      XYYY      -0.0002   YYYY    -270.7355   XXXZ      -0.0035
      XXYZ      -0.0255   XYYZ       0.0063   YYYZ      -0.1087
      XXZZ     -66.1903   XYZZ       0.0005   YYZZ     -66.1786
      XZZZ       0.0005   YZZZ      -0.0236   ZZZZ     -52.1916
 -----------------------------------------------------------------
 Mayer SCF Bond Order, atomic valence on the diagonal:

            1           2           3           4           5           6
    1   0.9408963   0.7764815   0.0922635  -0.0267496   0.0102061  -0.0267384
    2   0.7764815   4.4388654   1.8339809  -0.0981457   0.0489621  -0.0979809
    3   0.0922635   1.8339809   4.4386740   1.8343169  -0.0984842   0.0483931
    4  -0.0267496  -0.0981457   1.8343169   4.4382480   1.8340208  -0.0981851
    5   0.0102061   0.0489621  -0.0984842   1.8340208   4.4384738   1.8344169
    6  -0.0267384  -0.0979809   0.0483931  -0.0981851   1.8344169   4.4383301
    7   0.0922391   1.8341707  -0.0973593   0.0484592  -0.0984851   1.8339588
    8   0.0109817   0.0922324   0.7764349   0.0923917  -0.0267612   0.0101798
    9   0.0006132  -0.0266580   0.0923513   0.7763848   0.0924509  -0.0268015
   10  -0.0000010   0.0101794  -0.0267264   0.0923239   0.7764918   0.0923199
   11   0.0006126  -0.0266148   0.0101757  -0.0267672   0.0924430   0.7764143
   12   0.0109878   0.0922577  -0.0266724   0.0101984  -0.0267873   0.0923533
            7           8           9          10          11          12
    1   0.0922391   0.0109817   0.0006132  -0.0000010   0.0006126   0.0109878
    2   1.8341707   0.0922324  -0.0266580   0.0101794  -0.0266148   0.0922577
    3  -0.0973593   0.7764349   0.0923513  -0.0267264   0.0101757  -0.0266724
    4   0.0484592   0.0923917   0.7763848   0.0923239  -0.0267672   0.0101984
    5  -0.0984851  -0.0267612   0.0924509   0.7764918   0.0924430  -0.0267873
    6   1.8339588   0.0101798  -0.0268015   0.0923199   0.7764143   0.0923533
    7   4.4385835  -0.0266270   0.0101938  -0.0266978   0.0922727   0.7764586
    8  -0.0266270   0.9410209   0.0109641   0.0006136  -0.0000001   0.0006109
    9   0.0101938   0.0109641   0.9410766   0.0109664   0.0006118  -0.0000000
   10  -0.0266978   0.0006136   0.0109664   0.9410493   0.0109659   0.0006137
   11   0.0922727  -0.0000001   0.0006118   0.0109659   0.9410795   0.0109655
   12   0.7764586   0.0006109  -0.0000000   0.0006137   0.0109655   0.9409861


 JobOver = TRUE
Archival summary:
1\1\qciep03\SP\HF\BasisUnspecified\66\jcartus\ThuFeb112:07:562018ThuFeb112:07:562018\0\\#,HF,BasisUnspecified,\\0,1\C\H,1,1.08408\C,1,1.39367,2,119.978\H,3,1.08407,1,120.02,2,0.0265017,0\C,1,1.39381,2,119.985,3,-179.882,0\H,5,1.08404,1,120.009,2,-0.0108774,0\C,5,1.39387,1,120.017,2,179.903,0\H,7,1.08422,5,120.035,1,-179.991,0\C,3,1.39413,1,120.006,2,-179.905,0\H,9,1.08424,3,120.03,1,-179.924,0\C,7,1.3949,5,119.984,1,-0.00476976,0\H,11,1.0845,7,120.018,5,179.746,0\\HF=-230.756141\\@

 Total job time:  86.33s(wall), 83.18s(cpu) 
 Thu Feb  1 12:07:56 2018

        *************************************************************
        *                                                           *
        *  Thank you very much for using Q-Chem.  Have a nice day.  *
        *                                                           *
        *************************************************************


*** MISSION COMPLETED -- STARFLEET OUT ***

0 sent ACK to 0 
now end server 0 ... 
