Process 0 of 1 is on qciep03 - thread support 0
initial socket setup ...start
initial socket setup ...done 
now start server 0 ... 
qciep03.tugraz.at 127.0.1
Q-Chem Developer Version! Running on 127.0.1.*
                  Welcome to Q-Chem
     A Quantum Leap Into The Future Of Chemistry


 Q-Chem 5.0, Q-Chem, Inc., Pleasanton, CA (2017)

 Yihan Shao,  Zhengting Gan,  E. Epifanovsky,  A. T. B. Gilbert,  M. Wormit,  
 J. Kussmann,  A. W. Lange,  A. Behn,  Jia Deng,  Xintian Feng,  D. Ghosh,  
 M. Goldey,  P. R. Horn,  L. D. Jacobson,  I. Kaliman,  T. Kus,  A. Landau,  
 Jie Liu,  E. I. Proynov,  R. M. Richard,  R. P. Steele,  E. J. Sundstrom,  
 H. L. Woodcock III,  P. M. Zimmerman,  D. Zuev,  B. Albrecht,  E. Alguire,  
 S. A. Baeppler,  D. Barton,  Z. Benda,  Y. A. Bernard,  E. J. Berquist,  
 K. B. Bravaya,  H. Burton,  D. Casanova,  Chun-Min Chang,  Yunqing Chen,  
 A. Chien,  K. D. Closser,  M. P. Coons,  S. Dasgupta,  A. L. Dempwolff,  
 M. Diedenhofen,  Hainam Do,  R. G. Edgar,  Po-Tung Fang,  S. Fatehi,  
 Qingguo Feng,  J. Fosso-Tande,  Qinghui Ge,  A. Ghysels,  G. Gidofalvi,  
 J. Gomes,  J. Gonthier,  A. Gunina,  M. W. D. Hanson-Heine,  
 P. H. P. Harbach,  A. W. Hauser,  J. E. Herr,  E. G. Hohenstein,  
 Z. C. Holden,  Kerwin Hui,  T.-C. Jagau,  Hyunjun Ji,  B. Kaduk,  
 K. Khistyaev,  Jaehoon Kim,  P. Klunzinger,  K. Koh,  D. Kosenkov,  
 L. Koulias,  T. Kowalczyk,  C. M. Krauter,  A. Kunitsa,  Ka Un Lao,  
 A. Laurent,  K. V. Lawler,  Joonho Lee,  D. Lefrancois,  S. Lehtola,  
 D. S. Levine,  Yi-Pei Li,  You-Sheng Lin,  Fenglai Liu,  E. Livshits,  
 A. Luenser,  P. Manohar,  E. Mansoor,  S. F. Manzer,  Shan-Ping Mao,  
 Yuezhi Mao,  N. Mardirossian,  A. V. Marenich,  T. Markovich,  
 L. A. Martinez-Martinez,  S. A. Maurer,  N. J. Mayhall,  S. C. McKenzie,  
 J.-M. Mewes,  A. F. Morrison,  J. W. Mullinax,  K. Nanda,  
 T. S. Nguyen-Beck,  R. Olivares-Amaya,  J. A. Parkhill,  T. M. Perrine,  
 F. Plasser,  S. Prager,  A. Prociuk,  E. Ramos,  D. R. Rehn,  F. Rob,  
 M. Schneider,  N. Sergueev,  S. M. Sharada,  S. Sharma,  D. W. Small,  
 T. Stauch,  T. Stein,  Yu-Chuan Su,  A. J. W. Thom,  A. Tkatchenko,  
 T. Tsuchimochi,  L. Vogt,  O. Vydrov,  M. A. Watson,  J. Wenzel,  
 M. de Wergifosse,  T. A. Wesolowski,  A. White,  J. Witte,  A. Yamada,  
 Jun Yang,  K. Yao,  S. Yeganeh,  S. R. Yost,  Zhi-Qiang You,  A. Zech,  
 Igor Ying Zhang,  Xing Zhang,  Yan Zhao,  Ying Zhu,  B. R. Brooks,  
 G. K. L. Chan,  C. J. Cramer,  M. S. Gordon,  W. J. Hehre,  A. Klamt,  
 M. W. Schmidt,  C. D. Sherrill,  D. G. Truhlar,  A. Aspuru-Guzik,  R. Baer,  
 A. T. Bell,  N. A. Besley,  Jeng-Da Chai,  R. A. DiStasio Jr.,  A. Dreuw,  
 B. D. Dunietz,  T. R. Furlani,  Chao-Ping Hsu,  Yousung Jung,  Jing Kong,  
 D. S. Lambrecht,  WanZhen Liang,  C. Ochsenfeld,  V. A. Rassolov,  
 L. V. Slipchenko,  J. E. Subotnik,  T. Van Voorhis,  J. M. Herbert,  
 A. I. Krylov,  P. M. W. Gill,  M. Head-Gordon

 Contributors to earlier versions of Q-Chem not listed above: 
 R. D. Adamson,  B. Austin,  J. Baker,  G. J. O. Beran,  K. Brandhorst,  
 S. T. Brown,  E. F. C. Byrd,  A. K. Chakraborty,  C.-L. Cheng,  
 Siu Hung Chien,  D. M. Chipman,  D. L. Crittenden,  H. Dachsel,  
 R. J. Doerksen,  A. D. Dutoi,  L. Fusti-Molnar,  W. A. Goddard III,  
 A. Golubeva-Zadorozhnaya,  S. R. Gwaltney,  G. Hawkins,  A. Heyden,  
 S. Hirata,  G. Kedziora,  F. J. Keil,  C. Kelley,  Jihan Kim,  R. A. King,  
 R. Z. Khaliullin,  P. P. Korambath,  W. Kurlancheek,  A. M. Lee,  M. S. Lee,  
 S. V. Levchenko,  Ching Yeh Lin,  D. Liotard,  R. C. Lochan,  I. Lotan,  
 P. E. Maslen,  N. Nair,  D. P. O'Neill,  D. Neuhauser,  E. Neuscamman,  
 C. M. Oana,  R. Olson,  B. Peters,  R. Peverati,  P. A. Pieniazek,  
 Y. M. Rhee,  J. Ritchie,  M. A. Rohrdanz,  E. Rosta,  N. J. Russ,  
 H. F. Schaefer III,  N. E. Schultz,  N. Shenvi,  A. C. Simmonett,  A. Sodt,  
 D. Stuck,  K. S. Thanthiriwatte,  V. Vanovschi,  Tao Wang,  A. Warshel,  
 C. F. Williams,  Q. Wu,  X. Xu,  W. Zhang

 Please cite Q-Chem as follows:
 Y. Shao et al., Mol. Phys. 113, 184-215 (2015)
 DOI: 10.1080/00268976.2014.952696

 Q-Chem 5.0.2 for Intel X86 EM64T Linux

 Parts of Q-Chem use Armadillo 5.200.1 (Boston Tea Smuggler).
 http://arma.sourceforge.net/

 Q-Chem begins on Thu Feb  1 12:00:33 2018  


Host: 0

     Scratch files written to /home/jcartus/scratch/33_HF-mOH_mono2.dir//
 Using version located at /usr/local/qchem/bin/qchem

 Parallel job on  1  processors

Total Memory Limit in MB = 2000
Mega-Array Size in MB = 192

Checking the input file for inconsistencies... 	...done.
Finally everything over in PARseQInput

--------------------------------------------------------------
User input:
--------------------------------------------------------------
$rem
SCF_PRINT                     1
BASIS                         6-311++g**
SCF_SAVE_MATRICES             1
SCF_CONVERGENCE               5
SCF_FINAL_PRINT               1
METHOD                        hf
JOBTYPE                       sp
$end

$molecule
0 1
O    -0.167235591    0.000145557    2.943064329
H    -1.010969151    -3.9884e-05    3.399033154
C    0.88199533    1.8821e-05    3.906791538
H    1.813385323    5.9838e-05    3.351066264
H    0.849525704    0.88916881    4.534616489
H    0.849495114    -0.889261044    4.534430809
$end


--------------------------------------------------------------
 ----------------------------------------------------------------
             Standard Nuclear Orientation (Angstroms)
    I     Atom           X                Y                Z
 ----------------------------------------------------------------
    1      O       0.7481816669    -0.1223175532    -0.0000003034
    2      H       1.1507362084     0.7481672342     0.0000046380
    3      C      -0.6692515245     0.0209961689     0.0000004687
    4      H      -1.0822520510    -0.9818739289    -0.0001811414
    5      H      -1.0192243935     0.5429791069     0.8893029774
    6      H      -1.0192039515     0.5432910001    -0.8891268590
 ----------------------------------------------------------------
 Molecular Point Group                 C1    NOp =  1
 Largest Abelian Subgroup              C1    NOp =  1
 Nuclear Repulsion Energy =    40.3054902566 hartrees
 There are        9 alpha and        9 beta electrons
 Requested basis set is 6-311++G(d,p)
 There are 32 shells and 72 basis functions

 Total QAlloc Memory Limit   2000 MB
 Mega-Array Size       188 MB
 MEM_STATIC part       192 MB

finished with qalloc call

                       Distance Matrix (Angstroms)
             O (  1)   H (  2)   C (  3)   H (  4)   H (  5)
   H (  2)  0.959059
   C (  3)  1.424660  1.959881
   H (  4)  2.022208  2.824762  1.084582
   H (  5)  2.087392  2.354078  1.088947  1.766446
   H (  6)  2.087399  2.353969  1.088947  1.766445  1.778430

 Job number = 2, Threshold = 1.00E-08
Integral type ranges set in mkLRange.C for JobNum: 2  <1-21|1-21>
Symmetry turned off temporarily
 Using the largest function pair in Schwarz integrals
Total number of integrals generated =           34749
Symmetry turned back on
 A cutoff of  1.0D-08 yielded    528 shell pairs
 There are      2708 function pairs (      2865 Cartesian)
 Job number = 11, Threshold = 1.00E-08
Integral type ranges set in mkLRange.C for JobNum: 11  <1-21|22-22>
Total number of integrals generated =           17190
 Smallest overlap matrix eigenvalue = 1.06E-03
 Multipole matrices computed through 2nd order

 Scale SEOQF with 1.000000e-01/1.000000e-01/1.000000e-01

 Standard Electronic Orientation quadrupole field applied
 Nucleus-field energy     =     0.0000000004 hartrees
 ENuRep (before)= 40.3054902566
 ENucField = 0.0000000004
 ENuRep (after) = 40.3054902570
 Guess from superposition of atomic densities
 Warning:  Energy on first SCF cycle will be non-variational
 SAD guess density has 18.000000 electrons

 ==================================================
    GEN_SCFMAN: A general SCF calculation manager  
                                                   
    Authors:                                       
        -- Eric Jon Sundstrom 2008-2014            
        -- Paul Horn 2010-2015                     
        -- Yuezhi Mao 2012-                        
        -- Dmitri Zuev 2014                        
        -- Alec White 2015-                        
        -- David Stuck 2015                        
        -- Shaama M.S. 2015                        
        -- Shane Yost 2015-                         
        -- Joonho Lee 2016-                        
        -- David Small 2016-                       
        -- Daniel Levine 2016-                     
        -- Susi Lehtola 2017-                      
        -- Hugh Burton 2017-                       
 ==================================================
 Hartree-Fock
Finding J and K together
 Job number = 22, Threshold = 1.00E-08
Integral type ranges set in mkLRange.C for JobNum: 22  <1-21|1-21>
 MakeJK  time:  CPU       0.45 s  wall       0.49 s
 HF Exchange:              -14.65265157480270
 One-Electron:             -234.87561725473350
 Total Coulomb:             93.92340275010100
 Nuclear repulsion:         40.30549025697000
 A restricted SCF calculation will be
 performed using DIIS
 SCF converges when DIIS error is below 1.0e-05
 ---------------------------------------
  Cycle       Energy         DIIS error
 ---------------------------------------
Finding J and K together
 Job number = 22, Threshold = 1.00E-08
Integral type ranges set in mkLRange.C for JobNum: 22  <1-21|1-21>
 MakeJK  time:  CPU       0.88 s  wall       1.14 s
 HF Exchange:              -14.88486544615375
 One-Electron:             -237.31573439605006
 Total Coulomb:             96.85146888350357
 Nuclear repulsion:         40.30549025697000
    1    -115.2993758225      6.98e-02  
Finding J and K together
 Job number = 22, Threshold = 1.00E-08
Integral type ranges set in mkLRange.C for JobNum: 22  <1-21|1-21>
 MakeJK  time:  CPU       0.90 s  wall       1.01 s
 HF Exchange:              -14.77774235594932
 One-Electron:             -236.32083970894010
 Total Coulomb:             95.72124808256805
 Nuclear repulsion:         40.30549025697000
    2    -115.0436407017      7.78e-03  
Finding J and K together
 Job number = 22, Threshold = 1.00E-08
Integral type ranges set in mkLRange.C for JobNum: 22  <1-21|1-21>
 MakeJK  time:  CPU       0.90 s  wall       1.21 s
 HF Exchange:              -14.85868445366882
 One-Electron:             -236.89269845825029
 Total Coulomb:             96.36661985973043
 Nuclear repulsion:         40.30549025697000
    3    -115.0718437254      4.20e-03  
Finding J and K together
 Job number = 22, Threshold = 1.00E-08
Integral type ranges set in mkLRange.C for JobNum: 22  <1-21|1-21>
 MakeJK  time:  CPU       0.91 s  wall       1.00 s
 HF Exchange:              -14.85135739158186
 One-Electron:             -236.79709069385797
 Total Coulomb:             96.26327020789347
 Nuclear repulsion:         40.30549025697000
    4    -115.0792727952      7.87e-04  
Finding J and K together
 Job number = 22, Threshold = 1.00E-08
Integral type ranges set in mkLRange.C for JobNum: 22  <1-21|1-21>
 MakeJK  time:  CPU       0.91 s  wall       1.03 s
 HF Exchange:              -14.85399454426816
 One-Electron:             -236.81233579025016
 Total Coulomb:             96.28113397387882
 Nuclear repulsion:         40.30549025697000
    5    -115.0796876206      1.33e-04  
Finding J and K together
 Job number = 22, Threshold = 1.00E-08
Integral type ranges set in mkLRange.C for JobNum: 22  <1-21|1-21>
 MakeJK  time:  CPU       0.91 s  wall       1.09 s
 HF Exchange:              -14.85372002313028
 One-Electron:             -236.80778887837482
 Total Coulomb:             96.27631151824005
 Nuclear repulsion:         40.30549025697000
    6    -115.0797061037      2.89e-05  
    7    -115.0797071263      9.27e-06  Convergence criterion met
 ---------------------------------------
 SCF time:   CPU 5.99s  wall 7.00s 
 Total energy in the final basis set =     -115.0797071263
 HF Exchange:              -14.85372002313028
 One-Electron:             -236.80778887837482
 Total Coulomb:             96.27631151824005
 Nuclear repulsion:         40.30549025697000
Wall  1 = 7
Clock 1 = 6.00750398635864
 ==================================================
                  Done GEN_SCFMAN                  
 ==================================================

Symmetry turned off temporarily

 --------------------------------------------------------------

                    Orbital Energies (a.u.)
 --------------------------------------------------------------

 Alpha MOs
 -- Occupied --
-20.557 -11.273  -1.357  -0.930  -0.692  -0.622  -0.594  -0.504
 -0.452
 -- Virtual --
  0.039   0.064   0.073   0.081   0.127   0.146   0.159   0.183
  0.280   0.289   0.298   0.298   0.310   0.330   0.351   0.394
  0.477   0.564   0.578   0.713   0.774   0.847   0.855   0.876
  1.068   1.190   1.235   1.289   1.376   1.455   1.626   1.681
  1.712   1.794   1.803   1.819   1.964   1.966   2.076   2.295
  2.342   2.421   2.520   2.712   2.764   2.786   2.857   2.861
  2.986   3.201   3.339   3.463   3.598   3.680   4.138   4.197
  4.336   4.440   5.567   5.907   6.217  25.079  51.600
 --------------------------------------------------------------

          Ground-State Mulliken Net Atomic Charges

     Atom                 Charge (a.u.)
  ----------------------------------------
      1 O                    -0.392083
      2 H                     0.257516
      3 C                    -0.208621
      4 H                     0.133259
      5 H                     0.104968
      6 H                     0.104961
  ----------------------------------------
  Sum of atomic charges =     0.000000

 -----------------------------------------------------------------
                    Cartesian Multipole Moments
 -----------------------------------------------------------------
    Charge (ESU x 10^10)
                 0.0000
    Dipole Moment (Debye)
         X      -1.0840      Y       1.7017      Z      -0.0000
       Tot       2.0176
    Quadrupole Moments (Debye-Ang)
        XX     -12.9637     XY       2.4601     YY     -12.1704
        XZ       0.0000     YZ       0.0000     ZZ     -13.7363
    Octopole Moments (Debye-Ang^2)
       XXX       3.8733    XXY       2.6556    XYY       1.6382
       YYY       0.7730    XXZ      -0.0000    XYZ      -0.0000
       YYZ      -0.0003    XZZ       0.1451    YZZ       0.7839
       ZZZ       0.0003
    Hexadecapole Moments (Debye-Ang^3)
      XXXX     -61.7516   XXXY       4.4014   XXYY     -12.5471
      XYYY       3.2882   YYYY     -19.7583   XXXZ       0.0001
      XXYZ       0.0001   XYYZ       0.0004   YYYZ       0.0000
      XXZZ     -14.4155   XYZZ      -0.0605   YYZZ      -6.7234
      XZZZ      -0.0003   YZZZ       0.0000   ZZZZ     -19.6528
 -----------------------------------------------------------------
 Mayer SCF Bond Order, atomic valence on the diagonal:

            1           2           3           4           5           6
    1   1.7101041   0.9443211   0.8701816  -0.0485890  -0.0279052  -0.0279044
    2   0.9443211   0.9573130   0.0116923   0.0058148  -0.0022582  -0.0022571
    3   0.8701816   0.0116923   3.8540433   0.9995823   0.9862927   0.9862944
    4  -0.0485890   0.0058148   0.9995823   0.9169696  -0.0199195  -0.0199190
    5  -0.0279052  -0.0022582   0.9862927  -0.0199195   0.9153990  -0.0208108
    6  -0.0279044  -0.0022571   0.9862944  -0.0199190  -0.0208108   0.9154032


 JobOver = TRUE
Archival summary:
1\1\qciep03\SP\HF\BasisUnspecified\114\jcartus\ThuFeb112:00:402018ThuFeb112:00:402018\0\\#,HF,BasisUnspecified,\\0,1\O\H,1,0.959059\C,1,1.42466,2,109.045\H,3,1.08458,1,106.609,2,179.99,0\H,3,1.08895,1,111.591,2,61.4165,0\H,3,1.08895,1,111.591,2,-61.4361,0\\HF=-115.079707\\@

 Total job time:  7.53s(wall), 6.18s(cpu) 
 Thu Feb  1 12:00:40 2018

        *************************************************************
        *                                                           *
        *  Thank you very much for using Q-Chem.  Have a nice day.  *
        *                                                           *
        *************************************************************


*** MISSION COMPLETED -- STARFLEET OUT ***

0 sent ACK to 0 
now end server 0 ... 
