Process 0 of 1 is on qciep03 - thread support 0
initial socket setup ...start
initial socket setup ...done 
now start server 0 ... 
qciep03.tugraz.at 127.0.1
Q-Chem Developer Version! Running on 127.0.1.*
                  Welcome to Q-Chem
     A Quantum Leap Into The Future Of Chemistry


 Q-Chem 5.0, Q-Chem, Inc., Pleasanton, CA (2017)

 Yihan Shao,  Zhengting Gan,  E. Epifanovsky,  A. T. B. Gilbert,  M. Wormit,  
 J. Kussmann,  A. W. Lange,  A. Behn,  Jia Deng,  Xintian Feng,  D. Ghosh,  
 M. Goldey,  P. R. Horn,  L. D. Jacobson,  I. Kaliman,  T. Kus,  A. Landau,  
 Jie Liu,  E. I. Proynov,  R. M. Richard,  R. P. Steele,  E. J. Sundstrom,  
 H. L. Woodcock III,  P. M. Zimmerman,  D. Zuev,  B. Albrecht,  E. Alguire,  
 S. A. Baeppler,  D. Barton,  Z. Benda,  Y. A. Bernard,  E. J. Berquist,  
 K. B. Bravaya,  H. Burton,  D. Casanova,  Chun-Min Chang,  Yunqing Chen,  
 A. Chien,  K. D. Closser,  M. P. Coons,  S. Dasgupta,  A. L. Dempwolff,  
 M. Diedenhofen,  Hainam Do,  R. G. Edgar,  Po-Tung Fang,  S. Fatehi,  
 Qingguo Feng,  J. Fosso-Tande,  Qinghui Ge,  A. Ghysels,  G. Gidofalvi,  
 J. Gomes,  J. Gonthier,  A. Gunina,  M. W. D. Hanson-Heine,  
 P. H. P. Harbach,  A. W. Hauser,  J. E. Herr,  E. G. Hohenstein,  
 Z. C. Holden,  Kerwin Hui,  T.-C. Jagau,  Hyunjun Ji,  B. Kaduk,  
 K. Khistyaev,  Jaehoon Kim,  P. Klunzinger,  K. Koh,  D. Kosenkov,  
 L. Koulias,  T. Kowalczyk,  C. M. Krauter,  A. Kunitsa,  Ka Un Lao,  
 A. Laurent,  K. V. Lawler,  Joonho Lee,  D. Lefrancois,  S. Lehtola,  
 D. S. Levine,  Yi-Pei Li,  You-Sheng Lin,  Fenglai Liu,  E. Livshits,  
 A. Luenser,  P. Manohar,  E. Mansoor,  S. F. Manzer,  Shan-Ping Mao,  
 Yuezhi Mao,  N. Mardirossian,  A. V. Marenich,  T. Markovich,  
 L. A. Martinez-Martinez,  S. A. Maurer,  N. J. Mayhall,  S. C. McKenzie,  
 J.-M. Mewes,  A. F. Morrison,  J. W. Mullinax,  K. Nanda,  
 T. S. Nguyen-Beck,  R. Olivares-Amaya,  J. A. Parkhill,  T. M. Perrine,  
 F. Plasser,  S. Prager,  A. Prociuk,  E. Ramos,  D. R. Rehn,  F. Rob,  
 M. Schneider,  N. Sergueev,  S. M. Sharada,  S. Sharma,  D. W. Small,  
 T. Stauch,  T. Stein,  Yu-Chuan Su,  A. J. W. Thom,  A. Tkatchenko,  
 T. Tsuchimochi,  L. Vogt,  O. Vydrov,  M. A. Watson,  J. Wenzel,  
 M. de Wergifosse,  T. A. Wesolowski,  A. White,  J. Witte,  A. Yamada,  
 Jun Yang,  K. Yao,  S. Yeganeh,  S. R. Yost,  Zhi-Qiang You,  A. Zech,  
 Igor Ying Zhang,  Xing Zhang,  Yan Zhao,  Ying Zhu,  B. R. Brooks,  
 G. K. L. Chan,  C. J. Cramer,  M. S. Gordon,  W. J. Hehre,  A. Klamt,  
 M. W. Schmidt,  C. D. Sherrill,  D. G. Truhlar,  A. Aspuru-Guzik,  R. Baer,  
 A. T. Bell,  N. A. Besley,  Jeng-Da Chai,  R. A. DiStasio Jr.,  A. Dreuw,  
 B. D. Dunietz,  T. R. Furlani,  Chao-Ping Hsu,  Yousung Jung,  Jing Kong,  
 D. S. Lambrecht,  WanZhen Liang,  C. Ochsenfeld,  V. A. Rassolov,  
 L. V. Slipchenko,  J. E. Subotnik,  T. Van Voorhis,  J. M. Herbert,  
 A. I. Krylov,  P. M. W. Gill,  M. Head-Gordon

 Contributors to earlier versions of Q-Chem not listed above: 
 R. D. Adamson,  B. Austin,  J. Baker,  G. J. O. Beran,  K. Brandhorst,  
 S. T. Brown,  E. F. C. Byrd,  A. K. Chakraborty,  C.-L. Cheng,  
 Siu Hung Chien,  D. M. Chipman,  D. L. Crittenden,  H. Dachsel,  
 R. J. Doerksen,  A. D. Dutoi,  L. Fusti-Molnar,  W. A. Goddard III,  
 A. Golubeva-Zadorozhnaya,  S. R. Gwaltney,  G. Hawkins,  A. Heyden,  
 S. Hirata,  G. Kedziora,  F. J. Keil,  C. Kelley,  Jihan Kim,  R. A. King,  
 R. Z. Khaliullin,  P. P. Korambath,  W. Kurlancheek,  A. M. Lee,  M. S. Lee,  
 S. V. Levchenko,  Ching Yeh Lin,  D. Liotard,  R. C. Lochan,  I. Lotan,  
 P. E. Maslen,  N. Nair,  D. P. O'Neill,  D. Neuhauser,  E. Neuscamman,  
 C. M. Oana,  R. Olson,  B. Peters,  R. Peverati,  P. A. Pieniazek,  
 Y. M. Rhee,  J. Ritchie,  M. A. Rohrdanz,  E. Rosta,  N. J. Russ,  
 H. F. Schaefer III,  N. E. Schultz,  N. Shenvi,  A. C. Simmonett,  A. Sodt,  
 D. Stuck,  K. S. Thanthiriwatte,  V. Vanovschi,  Tao Wang,  A. Warshel,  
 C. F. Williams,  Q. Wu,  X. Xu,  W. Zhang

 Please cite Q-Chem as follows:
 Y. Shao et al., Mol. Phys. 113, 184-215 (2015)
 DOI: 10.1080/00268976.2014.952696

 Q-Chem 5.0.2 for Intel X86 EM64T Linux

 Parts of Q-Chem use Armadillo 5.200.1 (Boston Tea Smuggler).
 http://arma.sourceforge.net/

 Q-Chem begins on Thu Feb  1 12:09:19 2018  


Host: 0

     Scratch files written to /home/jcartus/scratch/21_benI-acetone_mono1.dir//
 Using version located at /usr/local/qchem/bin/qchem

 Parallel job on  1  processors

Total Memory Limit in MB = 2000
Mega-Array Size in MB = 192

Checking the input file for inconsistencies... 	...done.
Finally everything over in PARseQInput

--------------------------------------------------------------
User input:
--------------------------------------------------------------
$rem
SCF_PRINT                     1
BASIS                         6-311++g**
SCF_SAVE_MATRICES             1
SCF_CONVERGENCE               5
SCF_FINAL_PRINT               1
METHOD                        hf
JOBTYPE                       sp
$end

$molecule
0 1
C    -0.43601987    -1.503e-06    1.035407288
C    0.589762206    -1.3214e-05    1.978500062
C    1.922247312    -6.201e-06    1.571695588
C    2.228266034    -2.1972e-05    0.212569121
C    1.211087138    -6.405e-06    -0.74015358
H    -1.46924203    -1.95e-06    1.352224613
H    0.343101091    -8.425e-06    3.031629685
H    2.714694228    1.1502e-05    2.307032918
H    3.260261396    -2.6554e-05    -0.11155152
H    1.450707808    -1.0108e-05    -1.793985522
C    -0.120402824    2.2122e-05    -0.32357594
I    -1.658224104    0.000221203    -1.73801997
$end


--------------------------------------------------------------
 ----------------------------------------------------------------
             Standard Nuclear Orientation (Angstroms)
    I     Atom           X                Y                Z
 ----------------------------------------------------------------
    1      C       1.2350350299    -1.2090083175    -0.0000584993
    2      C       2.6284644544    -1.2063096965     0.0000077426
    3      C       3.3317217449    -0.0036311781     0.0000575488
    4      C       2.6347871532     1.2026666227     0.0000062580
    5      C       1.2411483387     1.2128794832    -0.0000561025
    6      H       0.6906563581    -2.1425891173    -0.0000920792
    7      H       3.1614790864    -2.1474893338     0.0000396437
    8      H       4.4127789791    -0.0065215498     0.0001357153
    9      H       3.1733109401     2.1407821525     0.0000344944
   10      H       0.7024837465     2.1498001221    -0.0000872459
   11      C       0.5452508467     0.0036941665    -0.0000699757
   12      I      -1.5441349909     0.0000805895     0.0000122196
 ----------------------------------------------------------------
 Molecular Point Group                 C1    NOp =  1
 Largest Abelian Subgroup              C1    NOp =  1
 Nuclear Repulsion Energy =   531.3444359737 hartrees
 There are       47 alpha and       47 beta electrons
 Requested basis set is 6-311++G(d,p)
 There are 85 shells and 229 basis functions

 Total QAlloc Memory Limit   2000 MB
 Mega-Array Size       188 MB
 MEM_STATIC part       192 MB

finished with qalloc call

                       Distance Matrix (Angstroms)
             C (  1)   C (  2)   C (  3)   C (  4)   C (  5)   H (  6)
   C (  2)  1.393432
   C (  3)  2.418477  1.393200
   C (  4)  2.788455  2.408985  1.393152
   C (  5)  2.421896  2.788749  2.418759  1.393676
   H (  6)  1.080704  2.152143  3.398583  3.869158  3.400325
   H (  7)  2.142880  1.081630  2.150607  3.391305  3.870368  2.470828
   H (  8)  3.397651  2.150179  1.081061  2.150207  3.397967  4.291501
   H (  9)  3.870143  3.391148  2.150256  1.081697  2.143421  4.950843
   H ( 10)  3.400765  3.869480  3.398552  2.151943  1.080731  4.292406
   C ( 11)  1.395152  2.409126  2.786481  2.409086  1.395135  2.151203
   I ( 12)  3.030789  4.343497  4.875858  4.348517  3.037875  3.096018
             H (  7)   H (  8)   H (  9)   H ( 10)   C ( 11)
   H (  8)  2.479817
   H (  9)  4.288288  2.479354
   H ( 10)  4.951096  4.291388  2.470844
   C ( 11)  3.387070  3.867542  3.387306  2.151858
   I ( 12)  5.172510  5.956918  5.180434  3.109436  2.089389

 Job number = 2, Threshold = 1.00E-08
Integral type ranges set in mkLRange.C for JobNum: 2  <1-21|1-21>
Symmetry turned off temporarily
 Using the largest function pair in Schwarz integrals
Total number of integrals generated =          384112
Symmetry turned back on
 A cutoff of  1.0D-08 yielded   2955 shell pairs
 There are     22297 function pairs (     24436 Cartesian)
 Job number = 11, Threshold = 1.00E-08
Integral type ranges set in mkLRange.C for JobNum: 11  <1-21|22-22>
Total number of integrals generated =          291480
 Smallest overlap matrix eigenvalue = 1.36E-06

 Q-Chem warning in module /usr/local/qchem/stvman/mkSTV.C, line 295:

 Overlap eigenvalue is smaller than square root of threshold

 Multipole matrices computed through 2nd order

 Scale SEOQF with 1.000000e-01/1.000000e-01/1.000000e-01

 Standard Electronic Orientation quadrupole field applied
 Nucleus-field energy     =     0.0000000158 hartrees
 ENuRep (before)= 531.3444359737
 ENucField = 0.0000000158
 ENuRep (after) = 531.3444359895
 Guess from superposition of atomic densities
 Warning:  Energy on first SCF cycle will be non-variational
 SAD guess density has 94.000000 electrons

 ==================================================
    GEN_SCFMAN: A general SCF calculation manager  
                                                   
    Authors:                                       
        -- Eric Jon Sundstrom 2008-2014            
        -- Paul Horn 2010-2015                     
        -- Yuezhi Mao 2012-                        
        -- Dmitri Zuev 2014                        
        -- Alec White 2015-                        
        -- David Stuck 2015                        
        -- Shaama M.S. 2015                        
        -- Shane Yost 2015-                         
        -- Joonho Lee 2016-                        
        -- David Small 2016-                       
        -- Daniel Levine 2016-                     
        -- Susi Lehtola 2017-                      
        -- Hugh Burton 2017-                       
 ==================================================
 Hartree-Fock
Finding J and K together
 Job number = 22, Threshold = 1.00E-08
Integral type ranges set in mkLRange.C for JobNum: 22  <1-21|1-21>
 MakeJK  time:  CPU      11.96 s  wall      11.98 s
 HF Exchange:              -207.85270061567937
 One-Electron:             -10872.67556779908227
 Total Coulomb:            3399.50673937110332
 Nuclear repulsion:        531.34443598954385
 A restricted SCF calculation will be
 performed using DIIS
 SCF converges when DIIS error is below 1.0e-05
 ---------------------------------------
  Cycle       Energy         DIIS error
 ---------------------------------------
Finding J and K together
 Job number = 22, Threshold = 1.00E-08
Integral type ranges set in mkLRange.C for JobNum: 22  <1-21|1-21>
 MakeJK  time:  CPU      36.80 s  wall      36.88 s
 HF Exchange:              -206.59063496236934
 One-Electron:             -10873.07734279815668
 Total Coulomb:            3401.42292868997720
 Nuclear repulsion:        531.34443598954385
    1   -7149.6770930541      4.16e-02  
Finding J and K together
 Job number = 22, Threshold = 1.00E-08
Integral type ranges set in mkLRange.C for JobNum: 22  <1-21|1-21>
 MakeJK  time:  CPU      36.52 s  wall      36.66 s
 HF Exchange:              -206.77584534714504
 One-Electron:             -10876.55775988487585
 Total Coulomb:            3405.02122569453013
 Nuclear repulsion:        531.34443598954385
    2   -7146.9006130810      2.86e-03  
Finding J and K together
 Job number = 22, Threshold = 1.00E-08
Integral type ranges set in mkLRange.C for JobNum: 22  <1-21|1-21>
 MakeJK  time:  CPU      34.94 s  wall      35.28 s
 HF Exchange:              -206.75161144606707
 One-Electron:             -10874.84951737531082
 Total Coulomb:            3403.27910096323740
 Nuclear repulsion:        531.34443598954385
    3   -7146.9679435479      1.28e-03  
Finding J and K together
 Job number = 22, Threshold = 1.00E-08
Integral type ranges set in mkLRange.C for JobNum: 22  <1-21|1-21>
 MakeJK  time:  CPU      34.92 s  wall      36.46 s
 HF Exchange:              -206.76699494285052
 One-Electron:             -10875.30671223457102
 Total Coulomb:            3403.74857083179904
 Nuclear repulsion:        531.34443598954385
    4   -7146.9775918686      6.05e-04  
Finding J and K together
 Job number = 22, Threshold = 1.00E-08
Integral type ranges set in mkLRange.C for JobNum: 22  <1-21|1-21>
 MakeJK  time:  CPU      31.66 s  wall      32.01 s
 HF Exchange:              -206.77154503495061
 One-Electron:             -10875.37650139411926
 Total Coulomb:            3403.82278924337561
 Nuclear repulsion:        531.34443598954385
    5   -7146.9807003561      1.24e-04  
Finding J and K together
 Job number = 22, Threshold = 1.00E-08
Integral type ranges set in mkLRange.C for JobNum: 22  <1-21|1-21>
 MakeJK  time:  CPU      37.90 s  wall      38.63 s
 HF Exchange:              -206.77101058445393
 One-Electron:             -10875.33954606895531
 Total Coulomb:            3403.78527673423014
 Nuclear repulsion:        531.34443598954385
    6   -7146.9808211962      3.68e-05  
Finding J and K together
 Job number = 22, Threshold = 1.00E-08
Integral type ranges set in mkLRange.C for JobNum: 22  <1-21|1-21>
 MakeJK  time:  CPU      37.32 s  wall      38.93 s
 HF Exchange:              -206.77125291111122
 One-Electron:             -10875.34075223865329
 Total Coulomb:            3403.78672099026608
 Nuclear repulsion:        531.34443598954385
    7   -7146.9808439296      1.37e-05  
    8   -7146.9808481700      4.74e-06  Convergence criterion met
 ---------------------------------------
 SCF time:   CPU 264.43s  wall 269.00s 
 Total energy in the final basis set =    -7146.9808481700
 HF Exchange:              -206.77125291111122
 One-Electron:             -10875.34075223865329
 Total Coulomb:            3403.78672099026608
 Nuclear repulsion:        531.34443598954385
Wall  1 = 270
Clock 1 = 264.73391723632812
 ==================================================
                  Done GEN_SCFMAN                  
 ==================================================

Symmetry turned off temporarily

 --------------------------------------------------------------

                    Orbital Energies (a.u.)
 --------------------------------------------------------------

 Alpha MOs
 -- Occupied --
*******-180.862-169.668-169.667-169.667 -37.916 -33.104 -33.100
-33.100 -24.288 -24.287 -24.286 -24.283 -24.283 -11.295 -11.257
-11.257 -11.253 -11.253 -11.251  -7.233  -5.466  -5.456  -5.455
 -2.390  -2.385  -2.384  -2.372  -2.372  -1.173  -1.041  -1.035
 -0.876  -0.847  -0.798  -0.709  -0.645  -0.643  -0.607  -0.566
 -0.528  -0.516  -0.467  -0.406  -0.373  -0.353  -0.326
 -- Virtual --
  0.038   0.047   0.053   0.070   0.075   0.094   0.096   0.104
  0.125   0.135   0.146   0.157   0.162   0.163   0.177   0.178
  0.191   0.200   0.200   0.203   0.206   0.213   0.217   0.219
  0.226   0.228   0.252   0.271   0.279   0.294   0.296   0.326
  0.328   0.332   0.365   0.385   0.398   0.401   0.414   0.428
  0.439   0.479   0.489   0.503   0.518   0.589   0.590   0.600
  0.619   0.654   0.677   0.704   0.712   0.719   0.720   0.731
  0.744   0.745   0.764   0.784   0.806   0.831   0.862   0.871
  0.887   0.896   0.930   0.951   0.976   1.000   1.015   1.030
  1.043   1.061   1.088   1.109   1.111   1.134   1.150   1.190
  1.230   1.243   1.244   1.308   1.340   1.373   1.460   1.508
  1.553   1.617   1.659   1.742   1.756   1.778   1.779   1.793
  1.821   1.828   1.880   1.906   1.911   1.970   1.992   2.003
  2.042   2.097   2.117   2.211   2.214   2.219   2.232   2.239
  2.278   2.309   2.328   2.360   2.364   2.585   2.629   2.643
  2.728   2.768   2.793   2.846   2.948   2.965   2.988   3.005
  3.020   3.035   3.036   3.050   3.100   3.161   3.175   3.181
  3.272   3.277   3.309   3.456   3.469   3.546   3.756   3.775
  3.895   3.904   4.014   4.142   4.394   4.453   4.502   4.527
  4.551   4.556   4.562   4.683   4.827   5.010   5.259   6.571
  6.661   6.731  24.681  25.072  25.120  25.219  25.245  25.344
 29.077  29.563  29.632  29.657  29.892  29.911  29.918  29.974
 30.068 130.619 130.672 130.707 154.4461912.370
 --------------------------------------------------------------

          Ground-State Mulliken Net Atomic Charges

     Atom                 Charge (a.u.)
  ----------------------------------------
      1 C                    -0.686661
      2 C                    -0.053551
      3 C                    -0.394680
      4 C                    -0.051186
      5 C                    -0.692527
      6 H                     0.179866
      7 H                     0.209828
      8 H                     0.198110
      9 H                     0.209929
     10 H                     0.179613
     11 C                     0.925409
     12 I                    -0.024150
  ----------------------------------------
  Sum of atomic charges =    -0.000000

 -----------------------------------------------------------------
                    Cartesian Multipole Moments
 -----------------------------------------------------------------
    Charge (ESU x 10^10)
                -0.0000
    Dipole Moment (Debye)
         X       1.9968      Y      -0.0026      Z       0.0001
       Tot       1.9968
    Quadrupole Moments (Debye-Ang)
        XX     -57.1182     XY       0.0183     YY     -59.0598
        XZ       0.0003     YZ      -0.0000     ZZ     -69.4519
    Octopole Moments (Debye-Ang^2)
       XXX     -52.9124    XXY      -0.0310    XYY     -12.9629
       YYY       0.0088    XXZ       0.0033    XYZ      -0.0000
       YYZ      -0.0001    XZZ     -32.9614    YZZ      -0.0012
       ZZZ       0.0009
    Hexadecapole Moments (Debye-Ang^3)
      XXXX   -1363.1019   XXXY       0.1521   XXYY    -288.4695
      XYYY       0.0343   YYYY    -303.0346   XXXZ       0.0082
      XXYZ      -0.0001   XYYZ       0.0004   YYYZ      -0.0000
      XXZZ    -303.3344   XYZZ       0.0011   YYZZ     -78.7589
      XZZZ      -0.0008   YZZZ      -0.0000   ZZZZ     -91.8167
 -----------------------------------------------------------------
 Mayer SCF Bond Order, atomic valence on the diagonal:

            1           2           3           4           5           6
    1   4.8122172   1.5742108   0.0377179  -0.1004408   0.3122787   0.8370983
    2   1.5742108   4.0920519   1.8416301  -0.0642548  -0.1006861   0.0671421
    3   0.0377179   1.8416301   4.7386305   1.8412987   0.0406109  -0.0142512
    4  -0.1004408  -0.0642548   1.8412987   4.0875179   1.5698941  -0.0013045
    5   0.3122787  -0.1006861   0.0406109   1.5698941   4.8124924   0.0024945
    6   0.8370983   0.0671421  -0.0142512  -0.0013045   0.0024945   0.9809694
    7   0.0581665   0.7974418   0.0884652  -0.0190564   0.0030324   0.0087561
    8  -0.0376296   0.1115521   0.7587324   0.1117917  -0.0375714   0.0007211
    9   0.0032181  -0.0193663   0.0881289   0.7974082   0.0582156  -0.0000399
   10   0.0027640  -0.0011840  -0.0146476   0.0669588   0.8349102   0.0020941
   11   1.5480829  -0.1163818   0.0252848  -0.1157865   1.5516474   0.0321679
   12   0.5767504   0.0019480   0.0456604   0.0010094   0.5776660   0.0460908
            7           8           9          10          11          12
    1   0.0581665  -0.0376296   0.0032181   0.0027640   1.5480829   0.5767504
    2   0.7974418   0.1115521  -0.0193663  -0.0011840  -0.1163818   0.0019480
    3   0.0884652   0.7587324   0.0881289  -0.0146476   0.0252848   0.0456604
    4  -0.0190564   0.1117917   0.7974082   0.0669588  -0.1157865   0.0010094
    5   0.0030324  -0.0375714   0.0582156   0.8349102   1.5516474   0.5776660
    6   0.0087561   0.0007211  -0.0000399   0.0020941   0.0321679   0.0460908
    7   0.9236902   0.0107827   0.0006515  -0.0000434  -0.0243127  -0.0001936
    8   0.0107827   0.9458018   0.0107996   0.0007191   0.0156783   0.0002258
    9   0.0006515   0.0107996   0.9235347   0.0087841  -0.0240495  -0.0002156
   10  -0.0000434   0.0007191   0.0087841   0.9817189   0.0350949   0.0462687
   11  -0.0243127   0.0156783  -0.0240495   0.0350949   2.5787671  -0.3486586
   12  -0.0001936   0.0002258  -0.0002156   0.0462687  -0.3486586   0.9465517


 JobOver = TRUE
Archival summary:
1\1\qciep03\SP\HF\BasisUnspecified\165\jcartus\ThuFeb112:13:502018ThuFeb112:13:502018\0\\#,HF,BasisUnspecified,\\0,1\I\C,1,2.08939\C,2,1.39514,1,120.02\H,3,1.08073,2,120.183,1,-0.00517383,0\C,3,1.39368,2,119.501,1,179.994,0\H,5,1.0817,3,119.438,2,-179.999,0\C,5,1.39315,3,120.437,2,-0,0\H,7,1.08106,5,120.17,3,-179.998,0\C,7,1.3932,5,119.666,3,0.00182475,0\H,9,1.08163,7,120.159,5,180,0\C,9,1.39343,7,120.428,5,-0.00163859,0\H,11,1.0807,9,120.358,7,-180,0\\HF=-7146.98085\\@

 Total job time:  270.69s(wall), 265.74s(cpu) 
 Thu Feb  1 12:13:50 2018

        *************************************************************
        *                                                           *
        *  Thank you very much for using Q-Chem.  Have a nice day.  *
        *                                                           *
        *************************************************************


*** MISSION COMPLETED -- STARFLEET OUT ***

0 sent ACK to 0 
now end server 0 ... 
