Process 0 of 1 is on qciep03 - thread support 0
initial socket setup ...start
initial socket setup ...done 
now start server 0 ... 
qciep03.tugraz.at 127.0.1
Q-Chem Developer Version! Running on 127.0.1.*
                  Welcome to Q-Chem
     A Quantum Leap Into The Future Of Chemistry


 Q-Chem 5.0, Q-Chem, Inc., Pleasanton, CA (2017)

 Yihan Shao,  Zhengting Gan,  E. Epifanovsky,  A. T. B. Gilbert,  M. Wormit,  
 J. Kussmann,  A. W. Lange,  A. Behn,  Jia Deng,  Xintian Feng,  D. Ghosh,  
 M. Goldey,  P. R. Horn,  L. D. Jacobson,  I. Kaliman,  T. Kus,  A. Landau,  
 Jie Liu,  E. I. Proynov,  R. M. Richard,  R. P. Steele,  E. J. Sundstrom,  
 H. L. Woodcock III,  P. M. Zimmerman,  D. Zuev,  B. Albrecht,  E. Alguire,  
 S. A. Baeppler,  D. Barton,  Z. Benda,  Y. A. Bernard,  E. J. Berquist,  
 K. B. Bravaya,  H. Burton,  D. Casanova,  Chun-Min Chang,  Yunqing Chen,  
 A. Chien,  K. D. Closser,  M. P. Coons,  S. Dasgupta,  A. L. Dempwolff,  
 M. Diedenhofen,  Hainam Do,  R. G. Edgar,  Po-Tung Fang,  S. Fatehi,  
 Qingguo Feng,  J. Fosso-Tande,  Qinghui Ge,  A. Ghysels,  G. Gidofalvi,  
 J. Gomes,  J. Gonthier,  A. Gunina,  M. W. D. Hanson-Heine,  
 P. H. P. Harbach,  A. W. Hauser,  J. E. Herr,  E. G. Hohenstein,  
 Z. C. Holden,  Kerwin Hui,  T.-C. Jagau,  Hyunjun Ji,  B. Kaduk,  
 K. Khistyaev,  Jaehoon Kim,  P. Klunzinger,  K. Koh,  D. Kosenkov,  
 L. Koulias,  T. Kowalczyk,  C. M. Krauter,  A. Kunitsa,  Ka Un Lao,  
 A. Laurent,  K. V. Lawler,  Joonho Lee,  D. Lefrancois,  S. Lehtola,  
 D. S. Levine,  Yi-Pei Li,  You-Sheng Lin,  Fenglai Liu,  E. Livshits,  
 A. Luenser,  P. Manohar,  E. Mansoor,  S. F. Manzer,  Shan-Ping Mao,  
 Yuezhi Mao,  N. Mardirossian,  A. V. Marenich,  T. Markovich,  
 L. A. Martinez-Martinez,  S. A. Maurer,  N. J. Mayhall,  S. C. McKenzie,  
 J.-M. Mewes,  A. F. Morrison,  J. W. Mullinax,  K. Nanda,  
 T. S. Nguyen-Beck,  R. Olivares-Amaya,  J. A. Parkhill,  T. M. Perrine,  
 F. Plasser,  S. Prager,  A. Prociuk,  E. Ramos,  D. R. Rehn,  F. Rob,  
 M. Schneider,  N. Sergueev,  S. M. Sharada,  S. Sharma,  D. W. Small,  
 T. Stauch,  T. Stein,  Yu-Chuan Su,  A. J. W. Thom,  A. Tkatchenko,  
 T. Tsuchimochi,  L. Vogt,  O. Vydrov,  M. A. Watson,  J. Wenzel,  
 M. de Wergifosse,  T. A. Wesolowski,  A. White,  J. Witte,  A. Yamada,  
 Jun Yang,  K. Yao,  S. Yeganeh,  S. R. Yost,  Zhi-Qiang You,  A. Zech,  
 Igor Ying Zhang,  Xing Zhang,  Yan Zhao,  Ying Zhu,  B. R. Brooks,  
 G. K. L. Chan,  C. J. Cramer,  M. S. Gordon,  W. J. Hehre,  A. Klamt,  
 M. W. Schmidt,  C. D. Sherrill,  D. G. Truhlar,  A. Aspuru-Guzik,  R. Baer,  
 A. T. Bell,  N. A. Besley,  Jeng-Da Chai,  R. A. DiStasio Jr.,  A. Dreuw,  
 B. D. Dunietz,  T. R. Furlani,  Chao-Ping Hsu,  Yousung Jung,  Jing Kong,  
 D. S. Lambrecht,  WanZhen Liang,  C. Ochsenfeld,  V. A. Rassolov,  
 L. V. Slipchenko,  J. E. Subotnik,  T. Van Voorhis,  J. M. Herbert,  
 A. I. Krylov,  P. M. W. Gill,  M. Head-Gordon

 Contributors to earlier versions of Q-Chem not listed above: 
 R. D. Adamson,  B. Austin,  J. Baker,  G. J. O. Beran,  K. Brandhorst,  
 S. T. Brown,  E. F. C. Byrd,  A. K. Chakraborty,  C.-L. Cheng,  
 Siu Hung Chien,  D. M. Chipman,  D. L. Crittenden,  H. Dachsel,  
 R. J. Doerksen,  A. D. Dutoi,  L. Fusti-Molnar,  W. A. Goddard III,  
 A. Golubeva-Zadorozhnaya,  S. R. Gwaltney,  G. Hawkins,  A. Heyden,  
 S. Hirata,  G. Kedziora,  F. J. Keil,  C. Kelley,  Jihan Kim,  R. A. King,  
 R. Z. Khaliullin,  P. P. Korambath,  W. Kurlancheek,  A. M. Lee,  M. S. Lee,  
 S. V. Levchenko,  Ching Yeh Lin,  D. Liotard,  R. C. Lochan,  I. Lotan,  
 P. E. Maslen,  N. Nair,  D. P. O'Neill,  D. Neuhauser,  E. Neuscamman,  
 C. M. Oana,  R. Olson,  B. Peters,  R. Peverati,  P. A. Pieniazek,  
 Y. M. Rhee,  J. Ritchie,  M. A. Rohrdanz,  E. Rosta,  N. J. Russ,  
 H. F. Schaefer III,  N. E. Schultz,  N. Shenvi,  A. C. Simmonett,  A. Sodt,  
 D. Stuck,  K. S. Thanthiriwatte,  V. Vanovschi,  Tao Wang,  A. Warshel,  
 C. F. Williams,  Q. Wu,  X. Xu,  W. Zhang

 Please cite Q-Chem as follows:
 Y. Shao et al., Mol. Phys. 113, 184-215 (2015)
 DOI: 10.1080/00268976.2014.952696

 Q-Chem 5.0.2 for Intel X86 EM64T Linux

 Parts of Q-Chem use Armadillo 5.200.1 (Boston Tea Smuggler).
 http://arma.sourceforge.net/

 Q-Chem begins on Thu Jan 25 17:20:38 2018  


Host: 0

     Scratch files written to /home/jcartus/scratch/Adenine-thymine-complex-stack.dir//
 Using version located at /usr/local/qchem/bin/qchem

 Parallel job on  1  processors

Total Memory Limit in MB = 2000
Mega-Array Size in MB = 192

Checking the input file for inconsistencies... 	...done.
Finally everything over in PARseQInput

--------------------------------------------------------------
User input:
--------------------------------------------------------------
$rem
SCF_PRINT                     1
BASIS                         6-311++g**
SCF_SAVE_MATRICES             1
SCF_CONVERGENCE               5
SCF_FINAL_PRINT               1
METHOD                        hf
JOBTYPE                       sp
$end

$molecule
0 1
N    0.2793014    2.4068393    -0.6057517
C    -1.084857    2.4457461    -0.5511608
H    -1.6594403    3.0230294    -1.2560905
N    -1.5977117    1.7179877    0.4287543
C    -0.4897255    1.1714358    1.030191
C    -0.3461366    0.291471    2.1172343
N    -1.418709    -0.1677767    2.8101441
H    -1.238875    -0.9594802    3.4047578
H    -2.2918734    -0.1788223    2.3073619
N    0.885763    -0.0700763    2.4919494
C    1.9352348    0.4072878    1.7968022
H    2.906033    0.0788414    2.1458181
N    1.9409775    1.2242019    0.7402202
C    0.6952186    1.5779858    0.4063984
H    0.8610073    2.8298045    -1.3104502
N    1.2754606    -0.6478993    -1.9779104
C    1.4130533    -1.553685    -0.9550667
H    2.4258769    -1.867078    -0.7468778
C    0.3575976    -2.0239499    -0.2530575
C    0.4821292    -3.0179494    0.8521221
H    0.1757705    -2.5756065    1.7986281
H    -0.1601691    -3.8770412    0.6639498
H    1.5112443    -3.3572767    0.9513659
C    -0.9684711    -1.5298112    -0.5939792
O    -2.002928    -1.8396957    -0.0199453
N    -0.9956916    -0.638387    -1.672042
H    -1.9014057    -0.250172    -1.898576
C    0.0684702    -0.1191762    -2.3763759
O    -0.0397875    0.7227006    -3.2531083
H    2.0853289    -0.2760176    -2.4454577
$end


--------------------------------------------------------------
 ----------------------------------------------------------------
             Standard Nuclear Orientation (Angstroms)
    I     Atom           X                Y                Z
 ----------------------------------------------------------------
    1      N      -1.0629431107     2.2628546546    -0.3590224788
    2      C      -1.0087042599     2.3686562062     1.0015973154
    3      H      -1.8055200808     2.8285130923     1.5619044195
    4      N       0.0925712956     1.8580060977     1.5300993996
    5      C       0.7789119357     1.3866106278     0.4370297130
    6      C       2.0100152981     0.7188094340     0.3143715125
    7      N       2.7825139917     0.4419695216     1.3951348656
    8      H       3.5131653321    -0.2322565649     1.2393531122
    9      H       2.2956264858     0.3744391818     2.2747417240
   10      N       2.4384280462     0.3816603887    -0.9068973028
   11      C       1.6604890943     0.6768416487    -1.9652810629
   12      H       2.0589893989     0.3784070807    -2.9266720329
   13      N       0.4701998143     1.2821207882    -1.9896888738
   14      C       0.0834898567     1.6198344896    -0.7548123037
   15      H      -1.8374388853     2.5225615930    -0.9477413350
   16      N      -1.8477001806    -1.0329180194    -1.2126145280
   17      C      -0.6748265208    -1.7377486762    -1.3273744671
   18      H      -0.4177317649    -2.0493553439    -2.3294587981
   19      C       0.1085660660    -2.0244332181    -0.2633910292
   20      C       1.3788420304    -2.8000041908    -0.3626569048
   21      H       2.2281179687    -2.1769141932    -0.0871832439
   22      H       1.3577114727    -3.6512717968     0.3162330745
   23      H       1.5336385093    -3.1580084903    -1.3785019762
   24      C      -0.3108048561    -1.5468751097     1.0461604743
   25      O       0.3168556194    -1.7007944269     2.0844261295
   26      N      -1.5358898281    -0.8710567208     1.0519723000
   27      H      -1.8255639643    -0.4939217118     1.9442753035
   28      C      -2.3307350068    -0.5371225213    -0.0226511347
   29      O      -3.3483205356     0.1308970176     0.0634044547
   30      H      -2.3809971655    -0.7888826877    -2.0304312695
 ----------------------------------------------------------------
 Molecular Point Group                 C1    NOp =  1
 Largest Abelian Subgroup              C1    NOp =  1
 Nuclear Repulsion Energy =  1542.1430551380 hartrees
 There are       68 alpha and       68 beta electrons
 Requested basis set is 6-311++G(d,p)
 There are 169 shells and 495 basis functions

 Total QAlloc Memory Limit   2000 MB
 Mega-Array Size       188 MB
 MEM_STATIC part       192 MB

finished with qalloc call
 Job number = 2, Threshold = 1.00E-08
Integral type ranges set in mkLRange.C for JobNum: 2  <1-21|1-21>
Symmetry turned off temporarily
 Using the largest function pair in Schwarz integrals
Total number of integrals generated =         1633297
Symmetry turned back on
 A cutoff of  1.0D-08 yielded  10703 shell pairs
 There are     94907 function pairs (    101551 Cartesian)
 Job number = 11, Threshold = 1.00E-08
Integral type ranges set in mkLRange.C for JobNum: 11  <1-21|22-22>
Total number of integrals generated =         3046110
 Smallest overlap matrix eigenvalue = 7.48E-07

 Q-Chem warning in module /usr/local/qchem/stvman/mkSTV.C, line 295:

 Overlap eigenvalue is smaller than square root of threshold

 Linear dependence detected in AO basis
 Number of orthogonalized atomic orbitals = 494
 Maximum deviation from orthogonality = 2.954E-10
 Multipole matrices computed through 2nd order

 Scale SEOQF with 1.000000e-01/1.000000e-01/1.000000e-01

 Standard Electronic Orientation quadrupole field applied
 Nucleus-field energy     =     0.0000000154 hartrees
 ENuRep (before)= 1542.1430551380
 ENucField = 0.0000000154
 ENuRep (after) = 1542.1430551533
 Guess from superposition of atomic densities
 Warning:  Energy on first SCF cycle will be non-variational
 SAD guess density has 136.000000 electrons

 ==================================================
    GEN_SCFMAN: A general SCF calculation manager  
                                                   
    Authors:                                       
        -- Eric Jon Sundstrom 2008-2014            
        -- Paul Horn 2010-2015                     
        -- Yuezhi Mao 2012-                        
        -- Dmitri Zuev 2014                        
        -- Alec White 2015-                        
        -- David Stuck 2015                        
        -- Shaama M.S. 2015                        
        -- Shane Yost 2015-                         
        -- Joonho Lee 2016-                        
        -- David Small 2016-                       
        -- Daniel Levine 2016-                     
        -- Susi Lehtola 2017-                      
        -- Hugh Burton 2017-                       
 ==================================================
 Hartree-Fock
Finding J and K together
 Job number = 22, Threshold = 1.00E-08
Integral type ranges set in mkLRange.C for JobNum: 22  <1-21|1-21>
 MakeJK  time:  CPU      53.43 s  wall      53.81 s
 HF Exchange:              -121.10785146214710
 One-Electron:             -4307.72143212449464
 Total Coulomb:            1962.54598570389589
 Nuclear repulsion:        1542.14305515331694
 A restricted SCF calculation will be
 performed using DIIS
 SCF converges when DIIS error is below 1.0e-05
 ---------------------------------------
  Cycle       Energy         DIIS error
 ---------------------------------------
Finding J and K together
 Job number = 22, Threshold = 1.00E-08
Integral type ranges set in mkLRange.C for JobNum: 22  <1-21|1-21>
 MakeJK  time:  CPU     420.03 s  wall     421.62 s
 HF Exchange:              -118.71830908711848
 One-Electron:             -4311.26207123085260
 Total Coulomb:            1971.97734878034271
 Nuclear repulsion:        1542.14305515331694
    1    -924.1402427294      3.35e-02  
Finding J and K together
 Job number = 22, Threshold = 1.00E-08
Integral type ranges set in mkLRange.C for JobNum: 22  <1-21|1-21>
 MakeJK  time:  CPU     437.27 s  wall     439.69 s
 HF Exchange:              -118.46013375115601
 One-Electron:             -4316.63815068211170
 Total Coulomb:            1976.87066158880634
 Nuclear repulsion:        1542.14305515331694
    2    -915.8599763843      3.52e-03  
Finding J and K together
 Job number = 22, Threshold = 1.00E-08
Integral type ranges set in mkLRange.C for JobNum: 22  <1-21|1-21>
 MakeJK  time:  CPU     409.48 s  wall     412.44 s
 HF Exchange:              -118.76814571466201
 One-Electron:             -4314.31314208317872
 Total Coulomb:            1974.69053117903900
 Nuclear repulsion:        1542.14305515331694
    3    -916.0845676911      2.70e-03  
Finding J and K together
 Job number = 22, Threshold = 1.00E-08
Integral type ranges set in mkLRange.C for JobNum: 22  <1-21|1-21>
 MakeJK  time:  CPU     429.85 s  wall     433.67 s
 HF Exchange:              -118.78374453081750
 One-Electron:             -4314.60689577833455
 Total Coulomb:            1974.99148089730215
 Nuclear repulsion:        1542.14305515331694
    4    -916.2477014655      4.69e-04  
Finding J and K together
 Job number = 22, Threshold = 1.00E-08
Integral type ranges set in mkLRange.C for JobNum: 22  <1-21|1-21>
 MakeJK  time:  CPU     374.67 s  wall     377.01 s
 HF Exchange:              -118.78352099257189
 One-Electron:             -4314.53933608793523
 Total Coulomb:            1974.92275614967934
 Nuclear repulsion:        1542.14305515331694
    5    -916.2561042585      1.57e-04  
Finding J and K together
 Job number = 22, Threshold = 1.00E-08
Integral type ranges set in mkLRange.C for JobNum: 22  <1-21|1-21>
 MakeJK  time:  CPU     246.01 s  wall     246.23 s
 HF Exchange:              -118.78888990991966
 One-Electron:             -4314.56349844075339
 Total Coulomb:            1974.95210840027335
 Nuclear repulsion:        1542.14305515331694
    6    -916.2570457775      4.74e-05  
Finding J and K together
 Job number = 22, Threshold = 1.00E-08
Integral type ranges set in mkLRange.C for JobNum: 22  <1-21|1-21>
 MakeJK  time:  CPU     225.50 s  wall     225.66 s
 HF Exchange:              -118.79015468257145
 One-Electron:             -4314.56873654381980
 Total Coulomb:            1974.95856599306217
 Nuclear repulsion:        1542.14305515331694
    7    -916.2572247971      2.23e-05  
Finding J and K together
 Job number = 22, Threshold = 1.00E-08
Integral type ranges set in mkLRange.C for JobNum: 22  <1-21|1-21>
 MakeJK  time:  CPU     218.87 s  wall     219.02 s
 HF Exchange:              -118.79032366442877
 One-Electron:             -4314.55961157371712
 Total Coulomb:            1974.94960163525820
 Nuclear repulsion:        1542.14305515331694
    8    -916.2572700800      1.07e-05  
    9    -916.2572784496      3.63e-06  Convergence criterion met
 ---------------------------------------
 SCF time:   CPU 2834.51s  wall 2849.00s 
 Total energy in the final basis set =     -916.2572784496
 HF Exchange:              -118.79032366442877
 One-Electron:             -4314.55961157371712
 Total Coulomb:            1974.94960163525820
 Nuclear repulsion:        1542.14305515331694
Wall  1 = 2849
Clock 1 = 2835.43505859375000
 ==================================================
                  Done GEN_SCFMAN                  
 ==================================================

Symmetry turned off temporarily

 --------------------------------------------------------------

                    Orbital Energies (a.u.)
 --------------------------------------------------------------

 Alpha MOs
 -- Occupied --
-20.546 -20.542 -15.639 -15.637 -15.626 -15.580 -15.573 -15.571
-15.560 -11.421 -11.381 -11.343 -11.330 -11.328 -11.327 -11.323
-11.262 -11.258 -11.232  -1.438  -1.400  -1.379  -1.312  -1.310
 -1.256  -1.245  -1.194  -1.163  -1.109  -1.043  -0.970  -0.919
 -0.903  -0.898  -0.887  -0.854  -0.785  -0.774  -0.770  -0.742
 -0.709  -0.703  -0.684  -0.681  -0.678  -0.645  -0.640  -0.632
 -0.618  -0.617  -0.602  -0.599  -0.567  -0.564  -0.555  -0.548
 -0.519  -0.504  -0.496  -0.483  -0.460  -0.449  -0.444  -0.423
 -0.419  -0.382  -0.351  -0.317
 -- Virtual --
  0.030   0.041   0.048   0.053   0.060   0.064   0.071   0.081
  0.085   0.086   0.092   0.096   0.099   0.103   0.116   0.120
  0.124   0.127   0.130   0.140   0.143   0.146   0.150   0.153
  0.159   0.160   0.162   0.170   0.171   0.173   0.178   0.180
  0.184   0.188   0.196   0.199   0.200   0.205   0.215   0.217
  0.218   0.226   0.229   0.237   0.240   0.242   0.253   0.264
  0.264   0.272   0.276   0.277   0.283   0.287   0.293   0.296
  0.299   0.302   0.307   0.315   0.322   0.326   0.330   0.333
  0.334   0.340   0.344   0.344   0.351   0.353   0.358   0.361
  0.365   0.372   0.379   0.380   0.382   0.387   0.397   0.402
  0.404   0.406   0.412   0.415   0.416   0.424   0.427   0.430
  0.433   0.440   0.441   0.448   0.453   0.462   0.467   0.472
  0.476   0.481   0.487   0.489   0.500   0.501   0.506   0.517
  0.517   0.528   0.531   0.534   0.550   0.552   0.563   0.568
  0.578   0.596   0.600   0.624   0.631   0.646   0.652   0.676
  0.680   0.702   0.705   0.726   0.741   0.749   0.760   0.762
  0.781   0.795   0.798   0.807   0.821   0.829   0.833   0.847
  0.850   0.860   0.875   0.882   0.886   0.897   0.907   0.913
  0.922   0.933   0.937   0.948   0.957   0.967   0.973   0.987
  0.989   0.992   1.007   1.013   1.021   1.029   1.040   1.048
  1.049   1.061   1.073   1.078   1.088   1.094   1.099   1.108
  1.120   1.126   1.138   1.146   1.160   1.167   1.183   1.186
  1.194   1.204   1.206   1.217   1.228   1.236   1.243   1.261
  1.272   1.274   1.282   1.286   1.288   1.306   1.313   1.332
  1.337   1.347   1.347   1.358   1.370   1.384   1.420   1.423
  1.434   1.441   1.452   1.463   1.469   1.479   1.494   1.499
  1.511   1.513   1.525   1.528   1.547   1.571   1.597   1.602
  1.620   1.637   1.653   1.673   1.689   1.689   1.712   1.733
  1.777   1.794   1.797   1.810   1.825   1.832   1.851   1.861
  1.868   1.878   1.890   1.894   1.901   1.926   1.947   1.955
  1.965   1.976   1.987   1.996   2.010   2.021   2.036   2.038
  2.060   2.064   2.073   2.088   2.099   2.111   2.112   2.137
  2.147   2.161   2.166   2.183   2.197   2.206   2.208   2.217
  2.244   2.253   2.270   2.307   2.311   2.324   2.341   2.353
  2.375   2.407   2.432   2.445   2.466   2.482   2.491   2.506
  2.524   2.551   2.579   2.612   2.621   2.628   2.639   2.655
  2.666   2.689   2.698   2.708   2.763   2.780   2.810   2.828
  2.841   2.867   2.877   2.887   2.898   2.902   2.910   2.924
  2.941   2.956   2.962   2.994   2.997   3.015   3.025   3.030
  3.035   3.048   3.063   3.081   3.088   3.109   3.128   3.150
  3.166   3.194   3.208   3.216   3.234   3.239   3.250   3.261
  3.268   3.273   3.286   3.296   3.308   3.316   3.328   3.334
  3.339   3.362   3.371   3.379   3.387   3.407   3.427   3.447
  3.466   3.473   3.485   3.514   3.543   3.607   3.717   3.723
  3.751   3.766   3.774   3.789   3.839   3.877   3.887   3.903
  3.943   3.965   3.973   4.015   4.021   4.059   4.078   4.106
  4.115   4.160   4.167   4.205   4.228   4.272   4.299   4.379
  4.413   4.436   4.442   4.480   4.497   4.506   4.517   4.563
  4.592   4.666   4.750   4.863   5.019   5.076   5.189   5.219
  5.294   5.307   5.367   5.375   5.504   5.606   5.687   5.712
  5.719   5.761   5.807   5.853   5.880   6.373   6.434  24.882
 24.974  25.013  25.046  25.085  25.117  25.141  25.156  25.237
 25.325  37.019  37.033  37.051  37.069  37.105  37.168  37.191
 51.749  51.779
 --------------------------------------------------------------

          Ground-State Mulliken Net Atomic Charges

     Atom                 Charge (a.u.)
  ----------------------------------------
      1 N                    -0.221951
      2 C                     0.151145
      3 H                     0.226324
      4 N                    -0.201570
      5 C                    -0.197943
      6 C                     0.041176
      7 N                    -0.263773
      8 H                     0.314597
      9 H                     0.310104
     10 N                    -0.137494
     11 C                    -0.145171
     12 H                     0.220356
     13 N                    -0.077656
     14 C                    -0.355234
     15 H                     0.387049
     16 N                    -0.277692
     17 C                    -0.878206
     18 H                     0.235099
     19 C                     1.386001
     20 C                    -0.561253
     21 H                     0.217186
     22 H                     0.181942
     23 H                     0.141097
     24 C                    -0.591090
     25 O                    -0.298252
     26 N                    -0.303501
     27 H                     0.430308
     28 C                     0.292522
     29 O                    -0.415165
     30 H                     0.391047
  ----------------------------------------
  Sum of atomic charges =    -0.000000

 -----------------------------------------------------------------
                    Cartesian Multipole Moments
 -----------------------------------------------------------------
    Charge (ESU x 10^10)
                -0.0000
    Dipole Moment (Debye)
         X      -1.3399      Y      -0.9246      Z      -3.3386
       Tot       3.7144
    Quadrupole Moments (Debye-Ang)
        XX    -117.1467     XY      -7.2676     YY    -106.2735
        XZ       3.5794     YZ       7.8282     ZZ    -109.8375
    Octopole Moments (Debye-Ang^2)
       XXX      33.6823    XXY      -7.5310    XYY     -31.6401
       YYY       9.1135    XXZ       8.4884    XYZ      -6.0242
       YYZ     -15.4501    XZZ     -18.6992    YZZ     -11.8317
       ZZZ     -19.1141
    Hexadecapole Moments (Debye-Ang^3)
      XXXX   -2127.9471   XXXY     -61.6518   XXYY    -559.0574
      XYYY     -95.1327   YYYY   -1686.5545   XXXZ      90.3946
      XXYZ     -16.9877   XYYZ     -11.7550   YYYZ      11.8441
      XXZZ    -402.6772   XYZZ      -8.1420   YYZZ    -495.4948
      XZZZ       4.1491   YZZZ      63.7431   ZZZZ   -1046.9138
 -----------------------------------------------------------------
 Mayer SCF Bond Order, atomic valence on the diagonal:

            1           2           3           4           5           6
    1   3.0049593   0.9384688  -0.0622986   0.0203567   0.0109967   0.0000932
    2   0.9384688   3.5912731   0.9069344   1.3472885  -0.0040287   0.0006055
    3  -0.0622986   0.9069344   0.9111706  -0.0349775   0.0210639   0.0042784
    4   0.0203567   1.3472885  -0.0349775   3.2026298   1.7417525   0.1833396
    5   0.0109967  -0.0040287   0.0210639   1.7417525   4.0150350   1.2745682
    6   0.0000932   0.0006055   0.0042784   0.1833396   1.2745682   4.4531286
    7  -0.0083452   0.0247540   0.0004606  -0.0302735  -0.0238702   1.3762722
    8  -0.0006380   0.0004713   0.0002617   0.0026233   0.0342298   0.0026166
    9  -0.0005328  -0.0017052   0.0001393  -0.0107877  -0.0153815   0.0515461
   10   0.0051500  -0.0189552  -0.0010185   0.0008759   0.0929215   1.9478868
   11   0.0347958   0.0550098   0.0009082   0.0541744   0.2110106  -0.0727435
   12   0.0057045   0.0002408  -0.0000327   0.0022636   0.0120560   0.0073570
   13  -0.0608756   0.1373541   0.0062785   0.0268128  -0.1078688  -0.1925503
   14   1.3223326   0.0645595   0.0660834  -0.0862562   0.9621896   0.0409707
   15   0.8251430  -0.0165780   0.0010732   0.0117695   0.0195550  -0.0084785
   16  -0.0510527  -0.0024240  -0.0002263  -0.0009331  -0.0113252  -0.0083984
   17  -0.0461252   0.0159375  -0.0004067   0.0360520  -0.0782887  -0.1689407
   18  -0.0006214   0.0004911   0.0000177  -0.0001410   0.0001680  -0.0030004
   19   0.0248274  -0.0364927  -0.0002178  -0.0386595   0.0534642  -0.1691220
   20  -0.0015874  -0.0009622  -0.0016467  -0.0045919  -0.0233177   0.1552131
   21   0.0008455  -0.0011046  -0.0003968  -0.0006093  -0.0057172   0.0809315
   22  -0.0001714   0.0003016   0.0000980  -0.0003338   0.0000746  -0.0043950
   23  -0.0001484   0.0001162   0.0000046   0.0003642   0.0011697  -0.0031156
   24  -0.0207599   0.0614209   0.0030421   0.0015496  -0.0860961  -0.1747978
   25   0.0029367  -0.0168161   0.0000847   0.0124747  -0.0660863   0.1716503
   26  -0.0846600   0.0890753   0.0043846  -0.0209689   0.0124039  -0.0415333
   27   0.0002143   0.0069581   0.0001959  -0.0015532  -0.0020513   0.0059436
   28   0.0777832   0.0252406  -0.0005021  -0.0057668   0.0007478  -0.0005159
   29   0.0723521   0.0159105  -0.0023109  -0.0039092  -0.0150651  -0.0018188
   30   0.0007754  -0.0007987  -0.0001038   0.0006941   0.0057598  -0.0007338
            7           8           9          10          11          12
    1  -0.0083452  -0.0006380  -0.0005328   0.0051500   0.0347958   0.0057045
    2   0.0247540   0.0004713  -0.0017052  -0.0189552   0.0550098   0.0002408
    3   0.0004606   0.0002617   0.0001393  -0.0010185   0.0009082  -0.0000327
    4  -0.0302735   0.0026233  -0.0107877   0.0008759   0.0541744   0.0022636
    5  -0.0238702   0.0342298  -0.0153815   0.0929215   0.2110106   0.0120560
    6   1.3762722   0.0026166   0.0515461   1.9478868  -0.0727435   0.0073570
    7   2.8402349   0.8816470   0.8716876  -0.2161081  -0.0096765   0.0018001
    8   0.8816470   0.8826754  -0.0062293  -0.0256942   0.0041341   0.0005500
    9   0.8716876  -0.0062293   0.9057438   0.0166110   0.0053364   0.0000283
   10  -0.2161081  -0.0256942   0.0166110   2.9406043   1.3457935  -0.0715244
   11  -0.0096765   0.0041341   0.0053364   1.3457935   3.8524909   0.9883381
   12   0.0018001   0.0005500   0.0000283  -0.0715244   0.9883381   0.8842902
   13   0.0136138  -0.0024494   0.0001345   0.0356097   1.1068067  -0.0829099
   14  -0.0006142   0.0042551  -0.0052313  -0.1758930   0.0632397   0.0215073
   15  -0.0001670  -0.0001560  -0.0000133   0.0018856   0.0068458   0.0002374
   16  -0.0000880  -0.0005992  -0.0003092   0.0051735  -0.0429278   0.0006933
   17   0.0114531   0.0048956  -0.0023733  -0.0607631   0.1690277  -0.0131101
   18   0.0002085  -0.0001282   0.0000501   0.0001248  -0.0040657  -0.0008166
   19  -0.0820819   0.0074086  -0.0131266   0.0560985  -0.0771658   0.0133569
   20  -0.0168456  -0.0047132  -0.0019146   0.1093314   0.0267334  -0.0017314
   21  -0.0110051  -0.0053826   0.0004731  -0.0356599  -0.0065092  -0.0004055
   22  -0.0009874  -0.0000781   0.0001827   0.0054413   0.0017389  -0.0001030
   23   0.0014657   0.0003152  -0.0002008  -0.0108831  -0.0044898   0.0003094
   24   0.1076269  -0.0083034   0.0218458  -0.0564535   0.0134888   0.0002460
   25  -0.0466015  -0.0045854  -0.0027210  -0.0114527   0.0094675   0.0002575
   26  -0.0003794  -0.0005336  -0.0022544   0.0004973   0.0014914   0.0000024
   27   0.0001609  -0.0000061   0.0003883  -0.0005251   0.0001179   0.0000041
   28  -0.0048427  -0.0010795   0.0000120   0.0011599  -0.0245278   0.0002080
   29   0.0007046  -0.0001897   0.0000945   0.0011045  -0.0019355  -0.0002252
   30   0.0002663   0.0000330  -0.0000048  -0.0001301  -0.0019260  -0.0000117
           13          14          15          16          17          18
    1  -0.0608756   1.3223326   0.8251430  -0.0510527  -0.0461252  -0.0006214
    2   0.1373541   0.0645595  -0.0165780  -0.0024240   0.0159375   0.0004911
    3   0.0062785   0.0660834   0.0010732  -0.0002263  -0.0004067   0.0000177
    4   0.0268128  -0.0862562   0.0117695  -0.0009331   0.0360520  -0.0001410
    5  -0.1078688   0.9621896   0.0195550  -0.0113252  -0.0782887   0.0001680
    6  -0.1925503   0.0409707  -0.0084785  -0.0083984  -0.1689407  -0.0030004
    7   0.0136138  -0.0006142  -0.0001670  -0.0000880   0.0114531   0.0002085
    8  -0.0024494   0.0042551  -0.0001560  -0.0005992   0.0048956  -0.0001282
    9   0.0001345  -0.0052313  -0.0000133  -0.0003092  -0.0023733   0.0000501
   10   0.0356097  -0.1758930   0.0018856   0.0051735  -0.0607631   0.0001248
   11   1.1068067   0.0632397   0.0068458  -0.0429278   0.1690277  -0.0040657
   12  -0.0829099   0.0215073   0.0002374   0.0006933  -0.0131101  -0.0008166
   13   2.8331118   2.1169171  -0.0226775  -0.0348721   0.2103483   0.0001020
   14   2.1169171   4.7527024   0.0321922   0.0141285   0.4010580   0.0063342
   15  -0.0226775   0.0321922   0.8364499  -0.0025079  -0.0058149  -0.0002830
   16  -0.0348721   0.0141285  -0.0025079   2.5998162   0.9873356  -0.0522615
   17   0.2103483   0.4010580  -0.0058149   0.9873356   3.8575841   0.8650120
   18   0.0001020   0.0063342  -0.0002830  -0.0522615   0.8650120   0.9051685
   19  -0.2716104   0.0843429   0.0066833  -0.0013739   0.9543523   0.0579033
   20  -0.0208272  -0.0224619   0.0002624   0.0103948   0.4478374   0.0252059
   21   0.0044729  -0.0208803   0.0000877   0.0006633  -0.0199527   0.0016255
   22  -0.0010289   0.0028271   0.0000548   0.0004027   0.0578443   0.0015847
   23  -0.0007574  -0.0008593   0.0000585  -0.0009531   0.0855225  -0.0011723
   24   0.0695354   0.0162775  -0.0036523  -0.0806675   0.1410684  -0.0064117
   25  -0.0013857  -0.0718856   0.0000548   0.0074702   0.0157127   0.0017505
   26  -0.0004627   0.0402246  -0.0027128  -0.0177209  -0.1390532  -0.0031340
   27  -0.0000770  -0.0112846  -0.0002114   0.0107243  -0.0434975  -0.0007514
   28  -0.1032474   0.0036231  -0.0028288   1.1203101  -0.0758400   0.0140769
   29   0.0059642  -0.1002190  -0.0036800  -0.0986253   0.0798882   0.0017220
   30   0.0027623  -0.0147754   0.0003083   0.8497859   0.0284047   0.0015785
           19          20          21          22          23          24
    1   0.0248274  -0.0015874   0.0008455  -0.0001714  -0.0001484  -0.0207599
    2  -0.0364927  -0.0009622  -0.0011046   0.0003016   0.0001162   0.0614209
    3  -0.0002178  -0.0016467  -0.0003968   0.0000980   0.0000046   0.0030421
    4  -0.0386595  -0.0045919  -0.0006093  -0.0003338   0.0003642   0.0015496
    5   0.0534642  -0.0233177  -0.0057172   0.0000746   0.0011697  -0.0860961
    6  -0.1691220   0.1552131   0.0809315  -0.0043950  -0.0031156  -0.1747978
    7  -0.0820819  -0.0168456  -0.0110051  -0.0009874   0.0014657   0.1076269
    8   0.0074086  -0.0047132  -0.0053826  -0.0000781   0.0003152  -0.0083034
    9  -0.0131266  -0.0019146   0.0004731   0.0001827  -0.0002008   0.0218458
   10   0.0560985   0.1093314  -0.0356599   0.0054413  -0.0108831  -0.0564535
   11  -0.0771658   0.0267334  -0.0065092   0.0017389  -0.0044898   0.0134888
   12   0.0133569  -0.0017314  -0.0004055  -0.0001030   0.0003094   0.0002460
   13  -0.2716104  -0.0208272   0.0044729  -0.0010289  -0.0007574   0.0695354
   14   0.0843429  -0.0224619  -0.0208803   0.0028271  -0.0008593   0.0162775
   15   0.0066833   0.0002624   0.0000877   0.0000548   0.0000585  -0.0036523
   16  -0.0013739   0.0103948   0.0006633   0.0004027  -0.0009531  -0.0806675
   17   0.9543523   0.4478374  -0.0199527   0.0578443   0.0855225   0.1410684
   18   0.0579033   0.0252059   0.0016255   0.0015847  -0.0011723  -0.0064117
   19   0.4773010   0.2099042   0.0755717  -0.0769101  -0.1696215   0.2927945
   20   0.2099042   3.6556516   0.8498362   0.9881040   1.0615900  -0.0358626
   21   0.0755717   0.8498362   0.8592744  -0.0230372  -0.0149319   0.0095339
   22  -0.0769101   0.9881040  -0.0230372   0.9043036  -0.0147143  -0.0211712
   23  -0.1696215   1.0615900  -0.0149319  -0.0147143   0.9117508  -0.0104195
   24   0.2927945  -0.0358626   0.0095339  -0.0211712  -0.0104195   3.9696224
   25  -0.4084416  -0.1218810  -0.0233140  -0.0085270  -0.0062275   2.6097735
   26  -0.0442411   0.0234485   0.0004550  -0.0006448   0.0002320   1.1114694
   27   0.0084131   0.0094667   0.0000144   0.0002376   0.0002851   0.0462603
   28   0.0823951  -0.0053401   0.0034075  -0.0031876  -0.0017514  -0.1253560
   29  -0.0440632  -0.0027915   0.0002370   0.0006515  -0.0001229   0.1128807
   30  -0.0170869   0.0047987   0.0000257   0.0000495   0.0006867  -0.0192399
           25          26          27          28          29          30
    1   0.0029367  -0.0846600   0.0002143   0.0777832   0.0723521   0.0007754
    2  -0.0168161   0.0890753   0.0069581   0.0252406   0.0159105  -0.0007987
    3   0.0000847   0.0043846   0.0001959  -0.0005021  -0.0023109  -0.0001038
    4   0.0124747  -0.0209689  -0.0015532  -0.0057668  -0.0039092   0.0006941
    5  -0.0660863   0.0124039  -0.0020513   0.0007478  -0.0150651   0.0057598
    6   0.1716503  -0.0415333   0.0059436  -0.0005159  -0.0018188  -0.0007338
    7  -0.0466015  -0.0003794   0.0001609  -0.0048427   0.0007046   0.0002663
    8  -0.0045854  -0.0005336  -0.0000061  -0.0010795  -0.0001897   0.0000330
    9  -0.0027210  -0.0022544   0.0003883   0.0000120   0.0000945  -0.0000048
   10  -0.0114527   0.0004973  -0.0005251   0.0011599   0.0011045  -0.0001301
   11   0.0094675   0.0014914   0.0001179  -0.0245278  -0.0019355  -0.0019260
   12   0.0002575   0.0000024   0.0000041   0.0002080  -0.0002252  -0.0000117
   13  -0.0013857  -0.0004627  -0.0000770  -0.1032474   0.0059642   0.0027623
   14  -0.0718856   0.0402246  -0.0112846   0.0036231  -0.1002190  -0.0147754
   15   0.0000548  -0.0027128  -0.0002114  -0.0028288  -0.0036800   0.0003083
   16   0.0074702  -0.0177209   0.0107243   1.1203101  -0.0986253   0.8497859
   17   0.0157127  -0.1390532  -0.0434975  -0.0758400   0.0798882   0.0284047
   18   0.0017505  -0.0031340  -0.0007514   0.0140769   0.0017220   0.0015785
   19  -0.4084416  -0.0442411   0.0084131   0.0823951  -0.0440632  -0.0170869
   20  -0.1218810   0.0234485   0.0094667  -0.0053401  -0.0027915   0.0047987
   21  -0.0233140   0.0004550   0.0000144   0.0034075   0.0002370   0.0000257
   22  -0.0085270  -0.0006448   0.0002376  -0.0031876   0.0006515   0.0000495
   23  -0.0062275   0.0002320   0.0002851  -0.0017514  -0.0001229   0.0006867
   24   2.6097735   1.1114694   0.0462603  -0.1253560   0.1128807  -0.0192399
   25   1.9476760  -0.1359819  -0.0223540   0.0576300   0.0065606   0.0001133
   26  -0.1359819   2.6371015   0.8305092   1.0584860  -0.0540327   0.0127358
   27  -0.0223540   0.8305092   0.7962064  -0.0143799  -0.0271451   0.0001492
   28   0.0576300   1.0584860  -0.0143799   3.9302463   1.8582983  -0.0039662
   29   0.0065606  -0.0540327  -0.0271451   1.8582983   1.7849165  -0.0153181
   30   0.0001133   0.0127358   0.0001492  -0.0039662  -0.0153181   0.8348318


 JobOver = TRUE
Archival summary:
1\1\qciep03\SP\HF\BasisUnspecified\271011\jcartus\ThuJan2518:08:122018ThuJan2518:08:122018\0\\#,HF,BasisUnspecified,\\0,1\N\H,1,1.01111\C,1,1.37772,2,115.636\O,3,1.2203,1,123.971,2,-2.31552,0\N,3,1.37664,1,112.613,2,177.295,0\H,5,1.00637,3,115.415,1,-178.134,0\C,5,1.37317,3,123.835,1,-2.444,0\H,7,1.08045,5,115.391,3,-179.068,0\C,7,1.35202,5,122.546,3,0.903598,0\C,1,1.39914,2,115.765,3,173.723,0\O,10,1.22297,1,120.441,2,2.87234,0\C,9,1.49163,7,123.458,5,179.361,0\H,12,1.08815,9,110.753,7,-4.43178,0\H,12,1.08876,9,110.48,7,115.53,0\H,12,1.08903,9,110.391,7,-125.399,0\H,14,2.68193,12,156.046,9,32.2593,0\N,16,1.00633,14,102.385,12,-31.0412,0\H,17,1.00763,16,116.172,14,93.7319,0\C,17,1.357,16,115.259,14,-46.2988,0\N,19,1.33742,17,119.57,16,-16.703,0\C,20,1.34629,19,118.522,17,-179.423,0\H,21,1.08265,20,115.149,19,-179.911,0\N,21,1.33557,20,128.955,19,-0.0350709,0\C,23,1.33735,21,110.81,20,0.868512,0\N,24,1.37275,23,128.756,21,179.41,0\H,25,1.00692,24,126.485,23,5.04933,0\C,25,1.3658,24,106.879,23,179.417,0\H,27,1.07719,25,121.458,24,-179.163,0\N,27,1.32397,25,113.629,24,0.720229,0\C,29,1.37407,27,103.312,25,-0.516037,0\\HF=-916.257278\\@

 Total job time:  2854.45s(wall), 2840.10s(cpu) 
 Thu Jan 25 18:08:12 2018

        *************************************************************
        *                                                           *
        *  Thank you very much for using Q-Chem.  Have a nice day.  *
        *                                                           *
        *************************************************************


*** MISSION COMPLETED -- STARFLEET OUT ***

0 sent ACK to 0 
now end server 0 ... 
