This is a multi-thread run using 8 threads
/usr/local/qchem/bin/parallel.csh,  , pt_incl.inp, 1, 0, /home/jcartus/scratch/qchem16668/
MPIRUN in parallel.csh is mpirun
P4_RSHCOMMAND in parallel.csh is ssh
QCOUTFILE is stdout
Q-Chem machineFile is /usr/local/qchem/bin/mpi/machines 
Process 0 of 1 is on qciep03 - thread support 0
initial socket setup ...start
initial socket setup ...done 
now start server 0 ... 
qciep03.tugraz.at 127.0.1
Q-Chem Developer Version! Running on 127.0.1.*
                  Welcome to Q-Chem
     A Quantum Leap Into The Future Of Chemistry


 Q-Chem 5.0, Q-Chem, Inc., Pleasanton, CA (2017)

 Yihan Shao,  Zhengting Gan,  E. Epifanovsky,  A. T. B. Gilbert,  M. Wormit,  
 J. Kussmann,  A. W. Lange,  A. Behn,  Jia Deng,  Xintian Feng,  D. Ghosh,  
 M. Goldey,  P. R. Horn,  L. D. Jacobson,  I. Kaliman,  T. Kus,  A. Landau,  
 Jie Liu,  E. I. Proynov,  R. M. Richard,  R. P. Steele,  E. J. Sundstrom,  
 H. L. Woodcock III,  P. M. Zimmerman,  D. Zuev,  B. Albrecht,  E. Alguire,  
 S. A. Baeppler,  D. Barton,  Z. Benda,  Y. A. Bernard,  E. J. Berquist,  
 K. B. Bravaya,  H. Burton,  D. Casanova,  Chun-Min Chang,  Yunqing Chen,  
 A. Chien,  K. D. Closser,  M. P. Coons,  S. Dasgupta,  A. L. Dempwolff,  
 M. Diedenhofen,  Hainam Do,  R. G. Edgar,  Po-Tung Fang,  S. Fatehi,  
 Qingguo Feng,  J. Fosso-Tande,  Qinghui Ge,  A. Ghysels,  G. Gidofalvi,  
 J. Gomes,  J. Gonthier,  A. Gunina,  M. W. D. Hanson-Heine,  
 P. H. P. Harbach,  A. W. Hauser,  J. E. Herr,  E. G. Hohenstein,  
 Z. C. Holden,  Kerwin Hui,  T.-C. Jagau,  Hyunjun Ji,  B. Kaduk,  
 K. Khistyaev,  Jaehoon Kim,  P. Klunzinger,  K. Koh,  D. Kosenkov,  
 L. Koulias,  T. Kowalczyk,  C. M. Krauter,  A. Kunitsa,  Ka Un Lao,  
 A. Laurent,  K. V. Lawler,  Joonho Lee,  D. Lefrancois,  S. Lehtola,  
 D. S. Levine,  Yi-Pei Li,  You-Sheng Lin,  Fenglai Liu,  E. Livshits,  
 A. Luenser,  P. Manohar,  E. Mansoor,  S. F. Manzer,  Shan-Ping Mao,  
 Yuezhi Mao,  N. Mardirossian,  A. V. Marenich,  T. Markovich,  
 L. A. Martinez-Martinez,  S. A. Maurer,  N. J. Mayhall,  S. C. McKenzie,  
 J.-M. Mewes,  A. F. Morrison,  J. W. Mullinax,  K. Nanda,  
 T. S. Nguyen-Beck,  R. Olivares-Amaya,  J. A. Parkhill,  T. M. Perrine,  
 F. Plasser,  S. Prager,  A. Prociuk,  E. Ramos,  D. R. Rehn,  F. Rob,  
 M. Schneider,  N. Sergueev,  S. M. Sharada,  S. Sharma,  D. W. Small,  
 T. Stauch,  T. Stein,  Yu-Chuan Su,  A. J. W. Thom,  A. Tkatchenko,  
 T. Tsuchimochi,  L. Vogt,  O. Vydrov,  M. A. Watson,  J. Wenzel,  
 M. de Wergifosse,  T. A. Wesolowski,  A. White,  J. Witte,  A. Yamada,  
 Jun Yang,  K. Yao,  S. Yeganeh,  S. R. Yost,  Zhi-Qiang You,  A. Zech,  
 Igor Ying Zhang,  Xing Zhang,  Yan Zhao,  Ying Zhu,  B. R. Brooks,  
 G. K. L. Chan,  C. J. Cramer,  M. S. Gordon,  W. J. Hehre,  A. Klamt,  
 M. W. Schmidt,  C. D. Sherrill,  D. G. Truhlar,  A. Aspuru-Guzik,  R. Baer,  
 A. T. Bell,  N. A. Besley,  Jeng-Da Chai,  R. A. DiStasio Jr.,  A. Dreuw,  
 B. D. Dunietz,  T. R. Furlani,  Chao-Ping Hsu,  Yousung Jung,  Jing Kong,  
 D. S. Lambrecht,  WanZhen Liang,  C. Ochsenfeld,  V. A. Rassolov,  
 L. V. Slipchenko,  J. E. Subotnik,  T. Van Voorhis,  J. M. Herbert,  
 A. I. Krylov,  P. M. W. Gill,  M. Head-Gordon

 Contributors to earlier versions of Q-Chem not listed above: 
 R. D. Adamson,  B. Austin,  J. Baker,  G. J. O. Beran,  K. Brandhorst,  
 S. T. Brown,  E. F. C. Byrd,  A. K. Chakraborty,  C.-L. Cheng,  
 Siu Hung Chien,  D. M. Chipman,  D. L. Crittenden,  H. Dachsel,  
 R. J. Doerksen,  A. D. Dutoi,  L. Fusti-Molnar,  W. A. Goddard III,  
 A. Golubeva-Zadorozhnaya,  S. R. Gwaltney,  G. Hawkins,  A. Heyden,  
 S. Hirata,  G. Kedziora,  F. J. Keil,  C. Kelley,  Jihan Kim,  R. A. King,  
 R. Z. Khaliullin,  P. P. Korambath,  W. Kurlancheek,  A. M. Lee,  M. S. Lee,  
 S. V. Levchenko,  Ching Yeh Lin,  D. Liotard,  R. C. Lochan,  I. Lotan,  
 P. E. Maslen,  N. Nair,  D. P. O'Neill,  D. Neuhauser,  E. Neuscamman,  
 C. M. Oana,  R. Olson,  B. Peters,  R. Peverati,  P. A. Pieniazek,  
 Y. M. Rhee,  J. Ritchie,  M. A. Rohrdanz,  E. Rosta,  N. J. Russ,  
 H. F. Schaefer III,  N. E. Schultz,  N. Shenvi,  A. C. Simmonett,  A. Sodt,  
 D. Stuck,  K. S. Thanthiriwatte,  V. Vanovschi,  Tao Wang,  A. Warshel,  
 C. F. Williams,  Q. Wu,  X. Xu,  W. Zhang

 Please cite Q-Chem as follows:
 Y. Shao et al., Mol. Phys. 113, 184-215 (2015)
 DOI: 10.1080/00268976.2014.952696

 Q-Chem 5.0.2 for Intel X86 EM64T Linux

 Parts of Q-Chem use Armadillo 5.200.1 (Boston Tea Smuggler).
 http://arma.sourceforge.net/

 Q-Chem begins on Sat May 19 17:15:17 2018  


Host: 0

     Scratch files written to /home/jcartus/scratch/qchem16668//
 Using version located at /usr/local/qchem/bin/qchem

 Parallel job on  1  processors
Symmetry disabled for AIMD jobs.

Total Memory Limit in MB = 2000
Mega-Array Size in MB = 192

Checking the input file for inconsistencies... 	...done.
Finally everything over in PARseQInput

--------------------------------------------------------------
User input:
--------------------------------------------------------------
$molecule
   0 1
  Pt       -1.23239        2.53387        0.00000
  Pt        0.21499        1.13214        0.00000
  Pt        0.22221        2.91345        0.11177
  Pt       -0.40225        1.96355       -1.29171
$end

$rem
   JOBTYPE              aimd
   AIMD_METHOD          bomd
   METHOD               hf
   BASIS                lanl2dz
   ECP                  lanl2dz
   TIME_STEP            20        (20 a.u. = 0.48 fs) 
   AIMD_STEPS           200
   AIMD_INIT_VELOC      thermal
   AIMD_TEMP            700
$end 
--------------------------------------------------------------
 ----------------------------------------------------------------
             Standard Nuclear Orientation (Angstroms)
    I     Atom           X                Y                Z
 ----------------------------------------------------------------
    1      Pt     -1.2323900000     2.5338700000     0.0000000000
    2      Pt      0.2149900000     1.1321400000     0.0000000000
    3      Pt      0.2222100000     2.9134500000     0.1117700000
    4      Pt     -0.4022500000     1.9635500000    -1.2917100000
 ----------------------------------------------------------------
 Nuclear Repulsion Energy =   598.0613828478 hartrees
 There are       36 alpha and       36 beta electrons
 Requested basis set is LANL2DZ
 Compound shells will be simplified
 There are 32 shells and 88 basis functions

 Total QAlloc Memory Limit   2000 MB
 Mega-Array Size       188 MB
 MEM_STATIC part       192 MB

finished with qalloc call

                       Distance Matrix (Angstroms)
             Pt(  1)   Pt(  2)   Pt(  3)
   Pt(  2)  2.014884
   Pt(  3)  1.507460  1.784828
   Pt(  4)  1.637960  1.655519  1.806105

 Job number = 2, Threshold = 1.00E-11
Integral type ranges set in mkLRange.C for JobNum: 2  <1-21|1-21>
Symmetry turned off temporarily
 Using the largest function pair in Schwarz integrals
Total number of integrals generated =           88908
Symmetry turned back on
 A cutoff of  1.0D-11 yielded    528 shell pairs
 There are      4032 function pairs (      4812 Cartesian)
 Requested basis set is LANL2DZ
 Compound shells will be simplified
 There are 32 shells and 88 basis functions
 Job number = 2, Threshold = 1.00E-11
Integral type ranges set in mkLRange.C for JobNum: 2  <1-21|1-21>
Symmetry turned off temporarily
Symmetry turned back on
 A cutoff of  1.0D-11 yielded    528 shell pairs
 There are      4032 function pairs (      4812 Cartesian)
Integral type ranges set in mkLRange.C for JobNum: 18  <1-21|22-39>

 Q-Chem warning in module /usr/local/qchem/libqints/libqints/qchem/aobasis.C, line 99:

 Using a reconstructed effective core potential

Integral type ranges set in mkLRange.C for JobNum: 18  <1-21|22-39>
 Job number = 11, Threshold = 1.00E-11
Integral type ranges set in mkLRange.C for JobNum: 11  <1-21|40-40>
Total number of integrals generated =           19248
 Smallest overlap matrix eigenvalue = 1.18E-03
 Multipole matrices computed through 2nd order

 Scale SEOQF with 1.000000e-01/1.000000e-01/1.000000e-01

 Standard Electronic Orientation quadrupole field applied
 Nucleus-field energy     =     0.0000000237 hartrees
 ENuRep (before)= 598.0613828478
 ENucField = 0.0000000237
 ENuRep (after) = 598.0613828715
 Guess from superposition of atomic densities
 Warning:  Energy on first SCF cycle will be non-variational
 SAD guess density has 72.000000 electrons

 ==================================================
    GEN_SCFMAN: A general SCF calculation manager  
                                                   
    Authors:                                       
        -- Eric Jon Sundstrom 2008-2014            
        -- Paul Horn 2010-2015                     
        -- Yuezhi Mao 2012-                        
        -- Dmitri Zuev 2014                        
        -- Alec White 2015-                        
        -- David Stuck 2015                        
        -- Shaama M.S. 2015                        
        -- Shane Yost 2015-                         
        -- Joonho Lee 2016-                        
        -- David Small 2016-                       
        -- Daniel Levine 2016-                     
        -- Susi Lehtola 2017-                      
        -- Hugh Burton 2017-                       
 ==================================================
 Hartree-Fock
Finding J and K together
 Job number = 22, Threshold = 1.00E-11
Integral type ranges set in mkLRange.C for JobNum: 22  <1-21|1-21>
 MakeJK  time:  CPU       2.15 s  wall       2.15 s
 A restricted SCF calculation will be
 performed using DIIS
 SCF converges when DIIS error is below 1.0e-08
 ---------------------------------------
  Cycle       Energy         DIIS error
 ---------------------------------------
Finding J and K together
 Job number = 22, Threshold = 1.00E-11
Integral type ranges set in mkLRange.C for JobNum: 22  <1-21|1-21>
 MakeJK  time:  CPU       4.12 s  wall       4.12 s
    1    -482.0275300534      1.62e-01  
Finding J and K together
 Job number = 22, Threshold = 1.00E-11
Integral type ranges set in mkLRange.C for JobNum: 22  <1-21|1-21>
 MakeJK  time:  CPU       4.10 s  wall       4.11 s
    2    -467.7230281459      1.32e-02  
Finding J and K together
 Job number = 22, Threshold = 1.00E-11
Integral type ranges set in mkLRange.C for JobNum: 22  <1-21|1-21>
 MakeJK  time:  CPU       4.09 s  wall       4.10 s
    3    -467.8119872477      7.93e-03  
Finding J and K together
 Job number = 22, Threshold = 1.00E-11
Integral type ranges set in mkLRange.C for JobNum: 22  <1-21|1-21>
 MakeJK  time:  CPU       4.09 s  wall       4.09 s
    4    -467.8831822279      2.26e-03  
Finding J and K together
 Job number = 22, Threshold = 1.00E-11
Integral type ranges set in mkLRange.C for JobNum: 22  <1-21|1-21>
 MakeJK  time:  CPU       4.09 s  wall       4.10 s
    5    -467.8973567439      1.17e-03  
Finding J and K together
 Job number = 22, Threshold = 1.00E-11
Integral type ranges set in mkLRange.C for JobNum: 22  <1-21|1-21>
 MakeJK  time:  CPU       4.09 s  wall       4.09 s
    6    -467.9031202722      8.35e-04  
Finding J and K together
 Job number = 22, Threshold = 1.00E-11
Integral type ranges set in mkLRange.C for JobNum: 22  <1-21|1-21>
 MakeJK  time:  CPU       4.10 s  wall       4.10 s
    7    -467.9162573253      6.49e-04  
Finding J and K together
 Job number = 22, Threshold = 1.00E-11
Integral type ranges set in mkLRange.C for JobNum: 22  <1-21|1-21>
 MakeJK  time:  CPU       4.09 s  wall       4.09 s
    8    -467.9232879095      4.70e-04  
Finding J and K together
 Job number = 22, Threshold = 1.00E-11
Integral type ranges set in mkLRange.C for JobNum: 22  <1-21|1-21>
 MakeJK  time:  CPU       4.19 s  wall       4.19 s
    9    -467.9267620701      3.89e-04  
Finding J and K together
 Job number = 22, Threshold = 1.00E-11
Integral type ranges set in mkLRange.C for JobNum: 22  <1-21|1-21>
 MakeJK  time:  CPU       4.10 s  wall       4.10 s
   10    -467.9293632396      3.13e-04  
Finding J and K together
 Job number = 22, Threshold = 1.00E-11
Integral type ranges set in mkLRange.C for JobNum: 22  <1-21|1-21>
 MakeJK  time:  CPU       4.18 s  wall       4.18 s
   11    -467.9325287134      2.76e-04  
Finding J and K together
 Job number = 22, Threshold = 1.00E-11
Integral type ranges set in mkLRange.C for JobNum: 22  <1-21|1-21>
 MakeJK  time:  CPU       4.12 s  wall       4.12 s
   12    -467.9346146085      2.51e-04  
Finding J and K together
 Job number = 22, Threshold = 1.00E-11
Integral type ranges set in mkLRange.C for JobNum: 22  <1-21|1-21>
 MakeJK  time:  CPU       4.09 s  wall       4.09 s
   13    -467.9365557287      2.28e-04  
Finding J and K together
 Job number = 22, Threshold = 1.00E-11
Integral type ranges set in mkLRange.C for JobNum: 22  <1-21|1-21>
 MakeJK  time:  CPU       4.09 s  wall       4.09 s
   14    -467.9392612399      2.03e-04  
Finding J and K together
 Job number = 22, Threshold = 1.00E-11
Integral type ranges set in mkLRange.C for JobNum: 22  <1-21|1-21>
 MakeJK  time:  CPU       4.10 s  wall       4.10 s
   15    -467.9410451703      2.20e-04  
Finding J and K together
 Job number = 22, Threshold = 1.00E-11
Integral type ranges set in mkLRange.C for JobNum: 22  <1-21|1-21>
 MakeJK  time:  CPU       4.09 s  wall       4.10 s
   16    -467.9428944088      1.99e-04  
Finding J and K together
 Job number = 22, Threshold = 1.00E-11
Integral type ranges set in mkLRange.C for JobNum: 22  <1-21|1-21>
 MakeJK  time:  CPU       4.10 s  wall       4.10 s
   17    -467.9465557377      3.43e-04  
Finding J and K together
 Job number = 22, Threshold = 1.00E-11
Integral type ranges set in mkLRange.C for JobNum: 22  <1-21|1-21>
 MakeJK  time:  CPU       4.09 s  wall       4.10 s
   18    -467.9465444704      2.60e-04  
Finding J and K together
 Job number = 22, Threshold = 1.00E-11
Integral type ranges set in mkLRange.C for JobNum: 22  <1-21|1-21>
 MakeJK  time:  CPU       4.09 s  wall       4.09 s
   19    -467.9472895990      2.90e-04  
Finding J and K together
 Job number = 22, Threshold = 1.00E-11
Integral type ranges set in mkLRange.C for JobNum: 22  <1-21|1-21>
 MakeJK  time:  CPU       4.09 s  wall       4.09 s
   20    -467.9477812320      1.47e-04  
Finding J and K together
 Job number = 22, Threshold = 1.00E-11
Integral type ranges set in mkLRange.C for JobNum: 22  <1-21|1-21>
 MakeJK  time:  CPU       4.09 s  wall       4.09 s
   21    -467.9483466272      3.57e-04  
Finding J and K together
 Job number = 22, Threshold = 1.00E-11
Integral type ranges set in mkLRange.C for JobNum: 22  <1-21|1-21>
 MakeJK  time:  CPU       4.11 s  wall       4.11 s
   22    -467.9484953743      1.78e-04  
Finding J and K together
 Job number = 22, Threshold = 1.00E-11
Integral type ranges set in mkLRange.C for JobNum: 22  <1-21|1-21>
 MakeJK  time:  CPU       4.18 s  wall       4.18 s
   23    -467.9485689960      6.64e-05  
Finding J and K together
 Job number = 22, Threshold = 1.00E-11
Integral type ranges set in mkLRange.C for JobNum: 22  <1-21|1-21>
 MakeJK  time:  CPU       4.10 s  wall       4.11 s
   24    -467.9485815262      1.55e-05  
Finding J and K together
 Job number = 22, Threshold = 1.00E-11
Integral type ranges set in mkLRange.C for JobNum: 22  <1-21|1-21>
 MakeJK  time:  CPU       4.10 s  wall       4.10 s
   25    -467.9485863388      1.79e-05  
Finding J and K together
 Job number = 22, Threshold = 1.00E-11
Integral type ranges set in mkLRange.C for JobNum: 22  <1-21|1-21>
 MakeJK  time:  CPU       4.20 s  wall       4.20 s
   26    -467.9485865890      2.33e-05  
Finding J and K together
 Job number = 22, Threshold = 1.00E-11
Integral type ranges set in mkLRange.C for JobNum: 22  <1-21|1-21>
 MakeJK  time:  CPU       4.11 s  wall       4.11 s
   27    -467.9485879923      7.55e-06  
Finding J and K together
 Job number = 22, Threshold = 1.00E-11
Integral type ranges set in mkLRange.C for JobNum: 22  <1-21|1-21>
 MakeJK  time:  CPU       4.10 s  wall       4.10 s
   28    -467.9485882062      2.56e-06  
Finding J and K together
 Job number = 22, Threshold = 1.00E-11
Integral type ranges set in mkLRange.C for JobNum: 22  <1-21|1-21>
 MakeJK  time:  CPU       4.09 s  wall       4.09 s
   29    -467.9485881854      6.20e-06  
Finding J and K together
 Job number = 22, Threshold = 1.00E-11
Integral type ranges set in mkLRange.C for JobNum: 22  <1-21|1-21>
 MakeJK  time:  CPU       4.09 s  wall       4.09 s
   30    -467.9485882636      5.60e-07  
Finding J and K together
 Job number = 22, Threshold = 1.00E-11
Integral type ranges set in mkLRange.C for JobNum: 22  <1-21|1-21>
 MakeJK  time:  CPU       4.09 s  wall       4.10 s
   31    -467.9485882686      1.28e-06  
Finding J and K together
 Job number = 22, Threshold = 1.00E-11
Integral type ranges set in mkLRange.C for JobNum: 22  <1-21|1-21>
 MakeJK  time:  CPU       4.10 s  wall       4.11 s
   32    -467.9485882726      1.90e-07  
Finding J and K together
 Job number = 22, Threshold = 1.00E-11
Integral type ranges set in mkLRange.C for JobNum: 22  <1-21|1-21>
 MakeJK  time:  CPU       4.09 s  wall       4.09 s
   33    -467.9485882733      1.69e-07  
Finding J and K together
 Job number = 22, Threshold = 1.00E-11
Integral type ranges set in mkLRange.C for JobNum: 22  <1-21|1-21>
 MakeJK  time:  CPU       4.09 s  wall       4.09 s
   34    -467.9485882735      7.20e-08  
Finding J and K together
 Job number = 22, Threshold = 1.00E-11
Integral type ranges set in mkLRange.C for JobNum: 22  <1-21|1-21>
 MakeJK  time:  CPU       4.09 s  wall       4.09 s
   35    -467.9485882737      3.65e-08  
Finding J and K together
 Job number = 22, Threshold = 1.00E-11
Integral type ranges set in mkLRange.C for JobNum: 22  <1-21|1-21>
 MakeJK  time:  CPU       4.10 s  wall       4.10 s
   36    -467.9485882737      1.45e-08  
   37    -467.9485882737      6.57e-09  Convergence criterion met
 ---------------------------------------
 SCF time:   CPU 150.43s  wall 150.00s 
 Total energy in the final basis set =     -467.9485882737
Wall  1 = 150
Clock 1 = 150.4301910400
 ==================================================
                  Done GEN_SCFMAN                  
 ==================================================

Symmetry turned off temporarily

 --------------------------------------------------------------

                    Orbital Energies (a.u.)
 --------------------------------------------------------------

 Alpha MOs
 -- Occupied --
 -5.035  -4.807  -4.723  -4.657  -3.269  -3.149  -3.075  -2.962
 -2.940  -2.780  -2.724  -2.713  -2.660  -2.637  -2.607  -2.557
 -1.159  -1.060  -0.973  -0.957  -0.853  -0.793  -0.755  -0.716
 -0.666  -0.604  -0.584  -0.554  -0.536  -0.497  -0.460  -0.408
 -0.393  -0.357  -0.288  -0.230
 -- Virtual --
 -0.031  -0.002   0.039   0.042   0.071   0.076   0.078   0.079
  0.085   0.089   0.092   0.096   0.105   0.125   0.129   0.151
  0.196   0.229   0.252   0.259   0.273   0.311   0.373   0.381
  0.389   0.452   0.462   0.464   0.472   0.493   0.535   0.558
  0.593   0.608   0.617   0.619   0.625   0.640   0.649   0.681
  0.696   0.761   0.778   0.827   0.906   1.157   1.269   1.416
 13.039  15.248  17.139  24.144
 --------------------------------------------------------------

          Ground-State Mulliken Net Atomic Charges

     Atom                 Charge (a.u.)
  ----------------------------------------
      1 Pt                    0.051968
      2 Pt                   -0.097660
      3 Pt                    0.034523
      4 Pt                    0.011169
  ----------------------------------------
  Sum of atomic charges =     0.000000

 -----------------------------------------------------------------
                    Cartesian Multipole Moments
 -----------------------------------------------------------------
    Charge (ESU x 10^10)
                 0.0000
    Dipole Moment (Debye)
         X      -0.2989      Y      -0.6564      Z       0.2402
       Tot       0.7602
    Quadrupole Moments (Debye-Ang)
        XX     -96.7575     XY      -0.2946     YY    -101.2881
        XZ      -2.5026     YZ      -5.6451     ZZ     -99.2806
    Octopole Moments (Debye-Ang^2)
       XXX      82.3805    XXY    -206.1355    XYY      32.6247
       YYY    -649.7711    XXZ      32.8183    XYZ      -5.2097
       YYZ       5.8076    XZZ      31.2708    YZZ    -209.1500
       ZZZ      86.7472
    Hexadecapole Moments (Debye-Ang^3)
      XXXX    -378.6540   XXXY     213.9853   XXYY    -582.5976
      XYYY     244.7550   YYYY   -3217.6858   XXXZ     -53.9545
      XXYZ      57.1468   XYYZ     -27.7495   YYYZ      65.4889
      XXZZ    -134.3097   XYZZ      70.7652   YYZZ    -582.0118
      XZZZ     -50.9100   YZZZ     130.7161   ZZZZ    -411.2845
 -----------------------------------------------------------------
drvman_main.C: 73: calling DrvMan  Calculating analytic gradient of the SCF energy
drvman.C : 218: Calculating analytic gradient of the SCF energy
drvman.C: 244: calling SCF_Grad for normal SCF gradient
 Job number = 111, Threshold = 1.00E-11
Integral type ranges set in mkLRange.C for JobNum: 11  <1-21|40-40>
Finding J and K together
 ML is being used
 Job number = 122, Threshold = 1.00E-11
Integral type ranges set in mkLRange.C for JobNum: 22  <1-21|1-21>
Total number of integrals generated =        11622126
 MakeJK  time:  CPU      10.77 s  wall      11.28 s
 Gradient of SCF Energy
            1           2           3           4
    1   5.3110908  -1.1428680  -4.1483205  -0.0199023
    2  -0.1737132   2.6187746  -2.7574148   0.3123535
    3  -1.5199361  -1.5481340  -1.1916523   4.2597224
 Max gradient component =       5.311E+00
 RMS gradient           =       2.671E+00
drvman.C: 248: out of SCF_Grad for normal SCF gradient
 Gradient time:  CPU 27.20 s  wall 27.75 s
 ------------------------------------------------------------------------------
                     drvman        : Timing summary (seconds)
 ------------------------------------------------------------------------------
     job step          cpu (% of tot)      sys (% of tot)     wall (% of tot)
 ------------------------------------------------------------------------------
 ------------------------------------------------------------------------------
   Grand Totals     0.2720E+02          0.1100E-04          0.2775E+02
 ------------------------------------------------------------------------------
drvman_main.C: 77: out of DrvMan =======================================================
            AB INITIO MOLECULAR DYNAMICS
=======================================================
Created directory /home/jcartus/scratch/qchem16668/AIMD
AIMD will take 200 BOMD steps Velocity Verlet integration
Time step = 20.00000 a.u. ( = 0.48378 fs)
Total simulation time requested = 96.755 fs
Integral threshold = 10**(-11)
SCF convergence threshold = 10**(-8)
Generating viewable xyz trajectory,
 file (in Angstroms) at AIMD/View.xyz
Choosing nuclear velocities from Maxwell-Boltzmann
Velocities sampled from Maxwell-Boltzmann at T = 700.0 K
sqrt(kT/m) and (vx,vy,vz) for each atom:
  1   7.8977e-05   7.29e-05   6.83e-06   1.52e-06 
  2   7.8977e-05  -6.02e-05  -1.76e-04   1.35e-05 
  3   7.8977e-05   1.21e-04  -3.87e-06  -7.53e-05 
  4   7.8977e-05   2.56e-05   2.81e-05   3.91e-05 
T(nuclear) = 0.01130381 a.u.
v(c.o.m.) = (  3.9808e-05,  -3.6350e-05,  -5.2886e-06)
T(c.o.m.) = 2.08549e-03 a.u.
kT/2 = 0.001108 a.u.
Tx   = 0.004305 a.u.
Ty   = 0.005687 a.u.
Tz   = 0.001312 a.u.
Mean velocities (a.u.):   3.9808e-05  -3.6350e-05  -5.2886e-06
Removing c.o.m. velocity
T(nuclear) = 0.00921832 a.u.
v(c.o.m.) = ( -4.3734e-21,  -2.4991e-21,   1.2496e-21)
T(c.o.m.) = 1.91445e-35 a.u.
kT   = 0.002217 a.u. = 1.39 kcal/mol
Tx   = 0.003179 a.u. = 1.99 kcal/mol
Ty   = 0.004748 a.u. = 2.98 kcal/mol
Tz   = 0.001292 a.u. = 0.81 kcal/mol
Initial velocities in m/s
  1      7.2500e+01      9.4473e+01      1.4901e+01 
  2     -2.1887e+02     -3.0659e+02      4.1020e+01 
  3      1.7744e+02      7.1063e+01     -1.5311e+02 
  4     -3.1062e+01      1.4106e+02      9.7194e+01 
----------------------------------------------------------------------------
       Nuclear coordinates (Angst) and velocities (a.u.)
----------------------------------------------------------------------------
             x        y        z            v_x         v_y        v_z
----------------------------------------------------------------------------
1     Pt   -1.2324   2.5339   0.0000     3.3140e-05   4.3184e-05   6.8111e-06
2     Pt    0.2150   1.1321   0.0000    -1.0005e-04  -1.4014e-04   1.8750e-05
3     Pt    0.2222   2.9135   0.1118     8.1107e-05   3.2483e-05  -6.9989e-05
4     Pt   -0.4022   1.9635  -1.2917    -1.4199e-05   6.4477e-05   4.4428e-05
----------------------------------------------------------------------------
Write nuclear velocities every 1 time steps

TIME STEP #1 (t = 0.000 a.u. = 0.00000 fs)
--------------------------------------
 Instantaneous Temperature = 485.2 K
 ----------------------------------------------------------------
             Standard Nuclear Orientation (Angstroms)
    I     Atom           X                Y                Z
 ----------------------------------------------------------------
    1      Pt     -1.2336208690     2.5343787705     0.0005247122
    2      Pt      0.2142714755     1.1298769191     0.0006594671
    3      Pt      0.2243037399     2.9146149269     0.1113841365
    4      Pt     -0.4023943464     1.9641393835    -1.2925083158
 ----------------------------------------------------------------
 Nuclear Repulsion Energy =   597.2138817445 hartrees
 There are       36 alpha and       36 beta electrons

                       Distance Matrix (Angstroms)
             Pt(  1)   Pt(  2)   Pt(  3)
   Pt(  2)  2.017181
   Pt(  3)  1.510766  1.788198
   Pt(  4)  1.639526  1.657876  1.807503

 Applying Cartesian multipole field
    Component          Value
    ---------          -----
     (2,0,0)        1.00000E-11
     (0,2,0)        2.00000E-11
     (0,0,2)       -3.00000E-11
 Nucleus-field energy     =     0.0000000237 hartrees
 ENuRep (before)= 597.2138817445
 ENucField = 0.0000000237
 ENuRep (after) = 597.2138817682
 Job number = 2, Threshold = 1.00E-11
Integral type ranges set in mkLRange.C for JobNum: 2  <1-21|1-21>
Symmetry turned off temporarily
Symmetry turned back on
 Job number = 2, Threshold = 1.00E-11
Integral type ranges set in mkLRange.C for JobNum: 2  <1-21|1-21>
Symmetry turned off temporarily
Symmetry turned back on
Integral type ranges set in mkLRange.C for JobNum: 18  <1-21|22-39>
Integral type ranges set in mkLRange.C for JobNum: 18  <1-21|22-39>
 Job number = 11, Threshold = 1.00E-11
Integral type ranges set in mkLRange.C for JobNum: 11  <1-21|40-40>
 Smallest overlap matrix eigenvalue = 1.18E-03
 Multipole matrices computed through 2nd order
 Guess from superposition of atomic densities
 Warning:  Energy on first SCF cycle will be non-variational
 SAD guess density has 72.000000 electrons
 SCF convergence criterion is 10**(-8)
 A restricted Hartree-Fock SCF calculation will be
 performed using Pulay DIIS extrapolation
 SCF converges when DIIS error is below 1.0E-08
Using Integral Screening
Finding J and K together
 ML is being used
 Job number = 22, Threshold = 1.00E-11
Integral type ranges set in mkLRange.C for JobNum: 22  <1-21|1-21>
 MakeJK  time:  CPU       2.18 s  wall       2.18 s
Fock build time:  2.18 s (CPU) 2.18 s (wall)
DIIS Errors:  Max 1.82E+00 RMS 1.61E-01

Current DIIS subspace size = 1
REM_GRID_RESTART_DIIS = 0

 ---------------------------------------
  Cycle       Energy         DIIS Error
 ---------------------------------------
    1    -481.9687667871      1.61E-01  00000
Ite = 2 IFIte = 1 Thresh = 1.00e-11
Finding J and K together
 Job number = 22, Threshold = 1.00E-11
Integral type ranges set in mkLRange.C for JobNum: 22  <1-21|1-21>
 MakeJK  time:  CPU       4.14 s  wall       4.15 s
Fock build time:  4.14 s (CPU) 4.15 s (wall)
DIIS Errors:  Max 1.09E-01 RMS 1.31E-02

Current DIIS subspace size = 2
REM_GRID_RESTART_DIIS = 0

    2    -467.7784898714      1.31E-02  00000
Ite = 3 IFIte = 2 Thresh = 1.00e-11
Using dP: JK
Finding J and K together
 ML is being used
 Job number = 22, Threshold = 1.00E-11
Integral type ranges set in mkLRange.C for JobNum: 22  <1-21|1-21>
 MakeJK  time:  CPU       4.13 s  wall       4.13 s
Fock build time:  4.13 s (CPU) 4.13 s (wall)
DIIS Errors:  Max 8.57E-02 RMS 7.86E-03

Current DIIS subspace size = 3
REM_GRID_RESTART_DIIS = 0

    3    -467.8664003748      7.86E-03  00000
Ite = 4 IFIte = 3 Thresh = 1.00e-11
Using dP: JK
Finding J and K together
 ML is being used
 Job number = 22, Threshold = 1.00E-11
Integral type ranges set in mkLRange.C for JobNum: 22  <1-21|1-21>
 MakeJK  time:  CPU       4.10 s  wall       4.10 s
Fock build time:  4.10 s (CPU) 4.10 s (wall)
DIIS Errors:  Max 2.39E-02 RMS 2.25E-03

Current DIIS subspace size = 4
REM_GRID_RESTART_DIIS = 0

    4    -467.9364179161      2.25E-03  00000
Ite = 5 IFIte = 4 Thresh = 1.00e-11
Using dP: JK
Finding J and K together
 ML is being used
 Job number = 22, Threshold = 1.00E-11
Integral type ranges set in mkLRange.C for JobNum: 22  <1-21|1-21>
 MakeJK  time:  CPU       4.11 s  wall       4.11 s
Fock build time:  4.11 s (CPU) 4.11 s (wall)
DIIS Errors:  Max 1.32E-02 RMS 1.17E-03

Current DIIS subspace size = 5
REM_GRID_RESTART_DIIS = 0

    5    -467.9506119037      1.17E-03  00000
Ite = 6 IFIte = 5 Thresh = 1.00e-11
Using dP: JK
Finding J and K together
 ML is being used
 Job number = 22, Threshold = 1.00E-11
Integral type ranges set in mkLRange.C for JobNum: 22  <1-21|1-21>
 MakeJK  time:  CPU       4.09 s  wall       4.09 s
Fock build time:  4.09 s (CPU) 4.09 s (wall)
DIIS Errors:  Max 5.25E-03 RMS 8.36E-04

Current DIIS subspace size = 6
REM_GRID_RESTART_DIIS = 0

    6    -467.9563991030      8.36E-04  00000
Ite = 7 IFIte = 6 Thresh = 1.00e-11
Using dP: JK
Finding J and K together
 ML is being used
 Job number = 22, Threshold = 1.00E-11
Integral type ranges set in mkLRange.C for JobNum: 22  <1-21|1-21>
 MakeJK  time:  CPU       4.10 s  wall       4.10 s
Fock build time:  4.10 s (CPU) 4.10 s (wall)
DIIS Errors:  Max 5.39E-03 RMS 6.50E-04

Current DIIS subspace size = 7
REM_GRID_RESTART_DIIS = 0

    7    -467.9696274632      6.50E-04  00000
Ite = 8 IFIte = 7 Thresh = 1.00e-11
Using dP: JK
Finding J and K together
 ML is being used
 Job number = 22, Threshold = 1.00E-11
Integral type ranges set in mkLRange.C for JobNum: 22  <1-21|1-21>
 MakeJK  time:  CPU       4.10 s  wall       4.11 s
Fock build time:  4.10 s (CPU) 4.11 s (wall)
DIIS Errors:  Max 3.98E-03 RMS 4.67E-04

Current DIIS subspace size = 8
REM_GRID_RESTART_DIIS = 0

    8    -467.9766261039      4.67E-04  00000
Ite = 9 IFIte = 8 Thresh = 1.00e-11
Using dP: JK
Finding J and K together
 ML is being used
 Job number = 22, Threshold = 1.00E-11
Integral type ranges set in mkLRange.C for JobNum: 22  <1-21|1-21>
 MakeJK  time:  CPU       4.12 s  wall       4.13 s
Fock build time:  4.12 s (CPU) 4.13 s (wall)
DIIS Errors:  Max 3.43E-03 RMS 3.85E-04

Current DIIS subspace size = 9
REM_GRID_RESTART_DIIS = 0

    9    -467.9800533362      3.85E-04  00000
Ite = 10 IFIte = 9 Thresh = 1.00e-11
Using dP: JK
Finding J and K together
 ML is being used
 Job number = 22, Threshold = 1.00E-11
Integral type ranges set in mkLRange.C for JobNum: 22  <1-21|1-21>
 MakeJK  time:  CPU       4.17 s  wall       4.17 s
Fock build time:  4.17 s (CPU) 4.17 s (wall)
DIIS Errors:  Max 2.12E-03 RMS 3.07E-04

Current DIIS subspace size = 10
REM_GRID_RESTART_DIIS = 0

   10    -467.9825849012      3.07E-04  00000
Ite = 11 IFIte = 10 Thresh = 1.00e-11
Using dP: JK
Finding J and K together
 ML is being used
 Job number = 22, Threshold = 1.00E-11
Integral type ranges set in mkLRange.C for JobNum: 22  <1-21|1-21>
 MakeJK  time:  CPU       4.10 s  wall       4.10 s
Fock build time:  4.10 s (CPU) 4.10 s (wall)
DIIS Errors:  Max 2.03E-03 RMS 2.72E-04

Current DIIS subspace size = 11
REM_GRID_RESTART_DIIS = 0

   11    -467.9856226707      2.72E-04  00000
Ite = 12 IFIte = 11 Thresh = 1.00e-11
Using dP: JK
Finding J and K together
 ML is being used
 Job number = 22, Threshold = 1.00E-11
Integral type ranges set in mkLRange.C for JobNum: 22  <1-21|1-21>
 MakeJK  time:  CPU       4.21 s  wall       4.21 s
Fock build time:  4.21 s (CPU) 4.21 s (wall)
DIIS Errors:  Max 1.66E-03 RMS 2.46E-04

Current DIIS subspace size = 12
REM_GRID_RESTART_DIIS = 0

   12    -467.9875751323      2.46E-04  00000
Ite = 13 IFIte = 12 Thresh = 1.00e-11
Using dP: JK
Finding J and K together
 ML is being used
 Job number = 22, Threshold = 1.00E-11
Integral type ranges set in mkLRange.C for JobNum: 22  <1-21|1-21>
 MakeJK  time:  CPU       4.12 s  wall       4.12 s
Fock build time:  4.12 s (CPU) 4.12 s (wall)
DIIS Errors:  Max 1.51E-03 RMS 2.24E-04

Current DIIS subspace size = 13
REM_GRID_RESTART_DIIS = 0

   13    -467.9894988588      2.24E-04  00000
Ite = 14 IFIte = 13 Thresh = 1.00e-11
Using dP: JK
Finding J and K together
 ML is being used
 Job number = 22, Threshold = 1.00E-11
Integral type ranges set in mkLRange.C for JobNum: 22  <1-21|1-21>
 MakeJK  time:  CPU       4.10 s  wall       4.10 s
Fock build time:  4.10 s (CPU) 4.10 s (wall)
DIIS Errors:  Max 1.41E-03 RMS 2.00E-04

Current DIIS subspace size = 14
REM_GRID_RESTART_DIIS = 0

   14    -467.9920428348      2.00E-04  00000
Ite = 15 IFIte = 14 Thresh = 1.00e-11
Using dP: JK
Finding J and K together
 ML is being used
 Job number = 22, Threshold = 1.00E-11
Integral type ranges set in mkLRange.C for JobNum: 22  <1-21|1-21>
 MakeJK  time:  CPU       4.10 s  wall       4.10 s
Fock build time:  4.10 s (CPU) 4.10 s (wall)
DIIS Errors:  Max 1.48E-03 RMS 2.06E-04

Current DIIS subspace size = 15
REM_GRID_RESTART_DIIS = 0

   15    -467.9940643315      2.06E-04  00000
Ite = 16 IFIte = 0 Thresh = 1.00e-11
Finding J and K together
 Job number = 22, Threshold = 1.00E-11
Integral type ranges set in mkLRange.C for JobNum: 22  <1-21|1-21>
 MakeJK  time:  CPU       4.10 s  wall       4.10 s
Fock build time:  4.10 s (CPU) 4.10 s (wall)
DIIS Errors:  Max 1.36E-03 RMS 2.00E-04

Current DIIS subspace size = 15
REM_GRID_RESTART_DIIS = 0

   16    -467.9957619246      2.00E-04  00000
Ite = 17 IFIte = 1 Thresh = 1.00e-11
Using dP: JK
Finding J and K together
 ML is being used
 Job number = 22, Threshold = 1.00E-11
Integral type ranges set in mkLRange.C for JobNum: 22  <1-21|1-21>
 MakeJK  time:  CPU       4.09 s  wall       4.09 s
Fock build time:  4.09 s (CPU) 4.09 s (wall)
DIIS Errors:  Max 2.87E-03 RMS 2.79E-04

Current DIIS subspace size = 15
REM_GRID_RESTART_DIIS = 0

   17    -467.9991061916      2.79E-04  00000
Ite = 18 IFIte = 2 Thresh = 1.00e-11
Using dP: JK
Finding J and K together
 ML is being used
 Job number = 22, Threshold = 1.00E-11
Integral type ranges set in mkLRange.C for JobNum: 22  <1-21|1-21>
 MakeJK  time:  CPU       4.09 s  wall       4.09 s
Fock build time:  4.09 s (CPU) 4.09 s (wall)
DIIS Errors:  Max 2.84E-03 RMS 2.84E-04

Current DIIS subspace size = 15
REM_GRID_RESTART_DIIS = 0

   18    -467.9997929557      2.84E-04  00000
Ite = 19 IFIte = 3 Thresh = 1.00e-11
Using dP: JK
Finding J and K together
 ML is being used
 Job number = 22, Threshold = 1.00E-11
Integral type ranges set in mkLRange.C for JobNum: 22  <1-21|1-21>
 MakeJK  time:  CPU       4.09 s  wall       4.09 s
Fock build time:  4.09 s (CPU) 4.09 s (wall)
DIIS Errors:  Max 2.81E-03 RMS 2.69E-04

Current DIIS subspace size = 15
REM_GRID_RESTART_DIIS = 0

   19    -468.0003296408      2.69E-04  00000
Ite = 20 IFIte = 4 Thresh = 1.00e-11
Using dP: JK
Finding J and K together
 ML is being used
 Job number = 22, Threshold = 1.00E-11
Integral type ranges set in mkLRange.C for JobNum: 22  <1-21|1-21>
 MakeJK  time:  CPU       4.10 s  wall       4.10 s
Fock build time:  4.10 s (CPU) 4.10 s (wall)
DIIS Errors:  Max 1.26E-03 RMS 1.42E-04

Current DIIS subspace size = 15
REM_GRID_RESTART_DIIS = 0

   20    -468.0008200991      1.42E-04  00000
Ite = 21 IFIte = 5 Thresh = 1.00e-11
Using dP: JK
Finding J and K together
 ML is being used
 Job number = 22, Threshold = 1.00E-11
Integral type ranges set in mkLRange.C for JobNum: 22  <1-21|1-21>
 MakeJK  time:  CPU       4.09 s  wall       4.10 s
Fock build time:  4.09 s (CPU) 4.10 s (wall)
DIIS Errors:  Max 4.34E-03 RMS 4.26E-04

Current DIIS subspace size = 15
REM_GRID_RESTART_DIIS = 0

   21    -468.0012524511      4.26E-04  00000
Ite = 22 IFIte = 6 Thresh = 1.00e-11
Using dP: JK
Finding J and K together
 ML is being used
 Job number = 22, Threshold = 1.00E-11
Integral type ranges set in mkLRange.C for JobNum: 22  <1-21|1-21>
 MakeJK  time:  CPU       4.09 s  wall       4.10 s
Fock build time:  4.09 s (CPU) 4.10 s (wall)
DIIS Errors:  Max 2.73E-03 RMS 2.66E-04

Current DIIS subspace size = 15
REM_GRID_RESTART_DIIS = 0

   22    -468.0014489906      2.66E-04  00000
Ite = 23 IFIte = 7 Thresh = 1.00e-11
Using dP: JK
Finding J and K together
 ML is being used
 Job number = 22, Threshold = 1.00E-11
Integral type ranges set in mkLRange.C for JobNum: 22  <1-21|1-21>
 MakeJK  time:  CPU       4.09 s  wall       4.09 s
Fock build time:  4.09 s (CPU) 4.10 s (wall)
DIIS Errors:  Max 4.98E-04 RMS 5.21E-05

Current DIIS subspace size = 15
REM_GRID_RESTART_DIIS = 0

   23    -468.0015740458      5.21E-05  00000
Ite = 24 IFIte = 8 Thresh = 1.00e-11
Using dP: JK
Finding J and K together
 ML is being used
 Job number = 22, Threshold = 1.00E-11
Integral type ranges set in mkLRange.C for JobNum: 22  <1-21|1-21>
 MakeJK  time:  CPU       4.18 s  wall       4.19 s
Fock build time:  4.19 s (CPU) 4.19 s (wall)
DIIS Errors:  Max 3.32E-04 RMS 2.97E-05

Current DIIS subspace size = 15
REM_GRID_RESTART_DIIS = 0

   24    -468.0015842567      2.97E-05  00000
Ite = 25 IFIte = 9 Thresh = 1.00e-11
Using dP: JK
Finding J and K together
 ML is being used
 Job number = 22, Threshold = 1.00E-11
Integral type ranges set in mkLRange.C for JobNum: 22  <1-21|1-21>
 MakeJK  time:  CPU       4.09 s  wall       4.09 s
Fock build time:  4.09 s (CPU) 4.10 s (wall)
DIIS Errors:  Max 2.58E-04 RMS 2.63E-05

Current DIIS subspace size = 15
REM_GRID_RESTART_DIIS = 0

   25    -468.0015885879      2.63E-05  00000
Ite = 26 IFIte = 10 Thresh = 1.00e-11
Using dP: JK
Finding J and K together
 ML is being used
 Job number = 22, Threshold = 1.00E-11
Integral type ranges set in mkLRange.C for JobNum: 22  <1-21|1-21>
 MakeJK  time:  CPU       4.13 s  wall       4.13 s
Fock build time:  4.13 s (CPU) 4.13 s (wall)
DIIS Errors:  Max 2.19E-04 RMS 2.24E-05

Current DIIS subspace size = 15
REM_GRID_RESTART_DIIS = 0

   26    -468.0015895686      2.24E-05  00000
Ite = 27 IFIte = 11 Thresh = 1.00e-11
Using dP: JK
Finding J and K together
 ML is being used
 Job number = 22, Threshold = 1.00E-11
Integral type ranges set in mkLRange.C for JobNum: 22  <1-21|1-21>
 MakeJK  time:  CPU       4.18 s  wall       4.18 s
Fock build time:  4.18 s (CPU) 4.18 s (wall)
DIIS Errors:  Max 1.20E-04 RMS 1.15E-05

Current DIIS subspace size = 15
REM_GRID_RESTART_DIIS = 0

   27    -468.0015908098      1.15E-05  00000
Ite = 28 IFIte = 12 Thresh = 1.00e-11
Using dP: JK
Finding J and K together
 ML is being used
 Job number = 22, Threshold = 1.00E-11
Integral type ranges set in mkLRange.C for JobNum: 22  <1-21|1-21>
 MakeJK  time:  CPU       4.10 s  wall       4.10 s
Fock build time:  4.10 s (CPU) 4.10 s (wall)
DIIS Errors:  Max 1.90E-05 RMS 1.90E-06

Current DIIS subspace size = 15
REM_GRID_RESTART_DIIS = 0

   28    -468.0015911726      1.90E-06  00000
Ite = 29 IFIte = 13 Thresh = 1.00e-11
Using dP: JK
Finding J and K together
 ML is being used
 Job number = 22, Threshold = 1.00E-11
Integral type ranges set in mkLRange.C for JobNum: 22  <1-21|1-21>
 MakeJK  time:  CPU       4.09 s  wall       4.09 s
Fock build time:  4.09 s (CPU) 4.09 s (wall)
DIIS Errors:  Max 8.00E-05 RMS 7.74E-06

Current DIIS subspace size = 15
REM_GRID_RESTART_DIIS = 0

   29    -468.0015910844      7.74E-06  00000
Ite = 30 IFIte = 14 Thresh = 1.00e-11
Using dP: JK
Finding J and K together
 ML is being used
 Job number = 22, Threshold = 1.00E-11
Integral type ranges set in mkLRange.C for JobNum: 22  <1-21|1-21>
 MakeJK  time:  CPU       4.09 s  wall       4.09 s
Fock build time:  4.09 s (CPU) 4.09 s (wall)
DIIS Errors:  Max 5.89E-06 RMS 6.60E-07

Current DIIS subspace size = 15
REM_GRID_RESTART_DIIS = 0

   30    -468.0015912182      6.60E-07  00000
Ite = 31 IFIte = 0 Thresh = 1.00e-11
Finding J and K together
 Job number = 22, Threshold = 1.00E-11
Integral type ranges set in mkLRange.C for JobNum: 22  <1-21|1-21>
 MakeJK  time:  CPU       4.09 s  wall       4.09 s
Fock build time:  4.09 s (CPU) 4.09 s (wall)
DIIS Errors:  Max 1.13E-05 RMS 1.05E-06

Current DIIS subspace size = 15
REM_GRID_RESTART_DIIS = 0

   31    -468.0015912249      1.05E-06  00000
Ite = 32 IFIte = 1 Thresh = 1.00e-11
Using dP: JK
Finding J and K together
 ML is being used
 Job number = 22, Threshold = 1.00E-11
Integral type ranges set in mkLRange.C for JobNum: 22  <1-21|1-21>
 MakeJK  time:  CPU       4.09 s  wall       4.09 s
Fock build time:  4.09 s (CPU) 4.09 s (wall)
DIIS Errors:  Max 1.66E-06 RMS 1.98E-07

Current DIIS subspace size = 15
REM_GRID_RESTART_DIIS = 0

   32    -468.0015912283      1.98E-07  00000
Ite = 33 IFIte = 2 Thresh = 1.00e-11
Using dP: JK
Finding J and K together
 ML is being used
 Job number = 22, Threshold = 1.00E-11
Integral type ranges set in mkLRange.C for JobNum: 22  <1-21|1-21>
 MakeJK  time:  CPU       4.09 s  wall       4.09 s
Fock build time:  4.09 s (CPU) 4.10 s (wall)
DIIS Errors:  Max 2.16E-06 RMS 1.91E-07

Current DIIS subspace size = 15
REM_GRID_RESTART_DIIS = 0

   33    -468.0015912292      1.91E-07  00000
Ite = 34 IFIte = 3 Thresh = 1.00e-11
Using dP: JK
Finding J and K together
 ML is being used
 Job number = 22, Threshold = 1.00E-11
Integral type ranges set in mkLRange.C for JobNum: 22  <1-21|1-21>
 MakeJK  time:  CPU       4.09 s  wall       4.10 s
Fock build time:  4.09 s (CPU) 4.10 s (wall)
DIIS Errors:  Max 5.90E-07 RMS 7.29E-08

Current DIIS subspace size = 15
REM_GRID_RESTART_DIIS = 0

   34    -468.0015912294      7.29E-08  00000
Ite = 35 IFIte = 4 Thresh = 1.00e-11
Using dP: JK
Finding J and K together
 ML is being used
 Job number = 22, Threshold = 1.00E-11
Integral type ranges set in mkLRange.C for JobNum: 22  <1-21|1-21>
 MakeJK  time:  CPU       4.10 s  wall       4.10 s
Fock build time:  4.10 s (CPU) 4.10 s (wall)
DIIS Errors:  Max 4.17E-07 RMS 4.11E-08

Current DIIS subspace size = 15
REM_GRID_RESTART_DIIS = 0

   35    -468.0015912295      4.11E-08  00000
Ite = 36 IFIte = 5 Thresh = 1.00e-11
Using dP: JK
Finding J and K together
 ML is being used
 Job number = 22, Threshold = 1.00E-11
Integral type ranges set in mkLRange.C for JobNum: 22  <1-21|1-21>
 MakeJK  time:  CPU       4.10 s  wall       4.10 s
Fock build time:  4.10 s (CPU) 4.10 s (wall)
DIIS Errors:  Max 7.98E-08 RMS 1.17E-08

Current DIIS subspace size = 15
REM_GRID_RESTART_DIIS = 0

   36    -468.0015912295      1.17E-08  00000
Ite = 37 IFIte = 6 Thresh = 1.00e-11
Using dP: JK
Finding J and K together
 ML is being used
 Job number = 22, Threshold = 1.00E-11
Integral type ranges set in mkLRange.C for JobNum: 22  <1-21|1-21>
 MakeJK  time:  CPU       4.09 s  wall       4.09 s
Fock build time:  4.09 s (CPU) 4.09 s (wall)
DIIS Errors:  Max 4.98E-08 RMS 6.30E-09

Current DIIS subspace size = 15
REM_GRID_RESTART_DIIS = 0

   37    -468.0015912295      6.30E-09  00000 Convergence criterion met
 ---------------------------------------
 SCF time:  CPU 150.62 s  wall 150.76 s
 SCF   energy in the final basis set = -468.00159123
 Total energy in the final basis set = -468.00159123
drvman_main.C: 73: calling DrvMan  Calculating analytic gradient of the SCF energy
drvman.C : 218: Calculating analytic gradient of the SCF energy
drvman.C: 244: calling SCF_Grad for normal SCF gradient
 Job number = 111, Threshold = 1.00E-11
Integral type ranges set in mkLRange.C for JobNum: 11  <1-21|40-40>
Finding J and K together
 ML is being used
 Job number = 122, Threshold = 1.00E-11
Integral type ranges set in mkLRange.C for JobNum: 22  <1-21|1-21>
 MakeJK  time:  CPU      10.58 s  wall      10.57 s
 Gradient of SCF Energy
            1           2           3           4
    1   5.2491730  -1.1285113  -4.0978371  -0.0228246
    2  -0.1792304   2.5908166  -2.7234538   0.3118676
    3  -1.5148991  -1.5333366  -1.1785433   4.2267789
 Max gradient component =       5.249E+00
 RMS gradient           =       2.642E+00
drvman.C: 248: out of SCF_Grad for normal SCF gradient
 Gradient time:  CPU 27.05 s  wall 27.05 s
 ------------------------------------------------------------------------------
                     drvman        : Timing summary (seconds)
 ------------------------------------------------------------------------------
     job step          cpu (% of tot)      sys (% of tot)     wall (% of tot)
 ------------------------------------------------------------------------------
 ------------------------------------------------------------------------------
   Grand Totals     0.2705E+02          0.8000E-05          0.2705E+02
 ------------------------------------------------------------------------------
drvman_main.C: 77: out of DrvMan  Time for this dynamics step: 179.8 s (CPU) 179.9 s (wall)

TIME STEP #2 (t = 20.000 a.u. = 0.48378 fs)
--------------------------------------
 Instantaneous Temperature = 3261.3 K
 ----------------------------------------------------------------
             Standard Nuclear Orientation (Angstroms)
    I     Atom           X                Y                Z
 ----------------------------------------------------------------
    1      Pt     -1.2379780743     2.5349942882     0.0019516778
    2      Pt      0.2142250770     1.1260707829     0.0022321687
    3      Pt      0.2288380961     2.9174019060     0.1117001975
    4      Pt     -0.4025250988     1.9645430228    -1.2958240440
 ----------------------------------------------------------------
 Nuclear Repulsion Energy =   594.8826526001 hartrees
 There are       36 alpha and       36 beta electrons

                       Distance Matrix (Angstroms)
             Pt(  1)   Pt(  2)   Pt(  3)
   Pt(  2)  2.023354
   Pt(  3)  1.519812  1.794732
   Pt(  4)  1.645484  1.663841  1.813197

 Applying Cartesian multipole field
    Component          Value
    ---------          -----
     (2,0,0)        1.00000E-11
     (0,2,0)        2.00000E-11
     (0,0,2)       -3.00000E-11
 Nucleus-field energy     =     0.0000000237 hartrees
 ENuRep (before)= 594.8826526001
 ENucField = 0.0000000237
 ENuRep (after) = 594.8826526238
 Job number = 2, Threshold = 1.00E-11
Integral type ranges set in mkLRange.C for JobNum: 2  <1-21|1-21>
Symmetry turned off temporarily
Symmetry turned back on
 Job number = 2, Threshold = 1.00E-11
Integral type ranges set in mkLRange.C for JobNum: 2  <1-21|1-21>
Symmetry turned off temporarily
Symmetry turned back on
Integral type ranges set in mkLRange.C for JobNum: 18  <1-21|22-39>
Integral type ranges set in mkLRange.C for JobNum: 18  <1-21|22-39>
 Job number = 11, Threshold = 1.00E-11
Integral type ranges set in mkLRange.C for JobNum: 11  <1-21|40-40>
 Smallest overlap matrix eigenvalue = 1.19E-03
 Multipole matrices computed through 2nd order
 Guess from superposition of atomic densities
 Warning:  Energy on first SCF cycle will be non-variational
 SAD guess density has 72.000000 electrons
 SCF convergence criterion is 10**(-8)
 A restricted Hartree-Fock SCF calculation will be
 performed using Pulay DIIS extrapolation
 SCF converges when DIIS error is below 1.0E-08
Using Integral Screening
Finding J and K together
 ML is being used
 Job number = 22, Threshold = 1.00E-11
Integral type ranges set in mkLRange.C for JobNum: 22  <1-21|1-21>
 MakeJK  time:  CPU       2.14 s  wall       2.15 s
Fock build time:  2.15 s (CPU) 2.15 s (wall)
DIIS Errors:  Max 1.79E+00 RMS 1.59E-01

Current DIIS subspace size = 1
REM_GRID_RESTART_DIIS = 0

 ---------------------------------------
  Cycle       Energy         DIIS Error
 ---------------------------------------
    1    -481.8070893723      1.59E-01  00000
Ite = 2 IFIte = 1 Thresh = 1.00e-11
Finding J and K together
 Job number = 22, Threshold = 1.00E-11
Integral type ranges set in mkLRange.C for JobNum: 22  <1-21|1-21>
 MakeJK  time:  CPU       4.09 s  wall       4.09 s
Fock build time:  4.09 s (CPU) 4.09 s (wall)
DIIS Errors:  Max 1.06E-01 RMS 1.27E-02

Current DIIS subspace size = 2
REM_GRID_RESTART_DIIS = 0

    2    -467.9305081949      1.27E-02  00000
Ite = 3 IFIte = 2 Thresh = 1.00e-11
Using dP: JK
Finding J and K together
 ML is being used
 Job number = 22, Threshold = 1.00E-11
Integral type ranges set in mkLRange.C for JobNum: 22  <1-21|1-21>
 MakeJK  time:  CPU       4.09 s  wall       4.10 s
Fock build time:  4.09 s (CPU) 4.10 s (wall)
DIIS Errors:  Max 8.32E-02 RMS 7.62E-03

Current DIIS subspace size = 3
REM_GRID_RESTART_DIIS = 0

    3    -468.0155348584      7.62E-03  00000
Ite = 4 IFIte = 3 Thresh = 1.00e-11
Using dP: JK
Finding J and K together
 ML is being used
 Job number = 22, Threshold = 1.00E-11
Integral type ranges set in mkLRange.C for JobNum: 22  <1-21|1-21>
 MakeJK  time:  CPU       4.09 s  wall       4.09 s
Fock build time:  4.09 s (CPU) 4.09 s (wall)
DIIS Errors:  Max 2.36E-02 RMS 2.24E-03

Current DIIS subspace size = 4
REM_GRID_RESTART_DIIS = 0

    4    -468.0816904616      2.24E-03  00000
Ite = 5 IFIte = 4 Thresh = 1.00e-11
Using dP: JK
Finding J and K together
 ML is being used
 Job number = 22, Threshold = 1.00E-11
Integral type ranges set in mkLRange.C for JobNum: 22  <1-21|1-21>
 MakeJK  time:  CPU       4.09 s  wall       4.10 s
Fock build time:  4.09 s (CPU) 4.10 s (wall)
DIIS Errors:  Max 1.33E-02 RMS 1.18E-03

Current DIIS subspace size = 5
REM_GRID_RESTART_DIIS = 0

    5    -468.0960243040      1.18E-03  00000
Ite = 6 IFIte = 5 Thresh = 1.00e-11
Using dP: JK
Finding J and K together
 ML is being used
 Job number = 22, Threshold = 1.00E-11
Integral type ranges set in mkLRange.C for JobNum: 22  <1-21|1-21>
 MakeJK  time:  CPU       4.09 s  wall       4.10 s
Fock build time:  4.09 s (CPU) 4.10 s (wall)
DIIS Errors:  Max 5.34E-03 RMS 8.44E-04

Current DIIS subspace size = 6
REM_GRID_RESTART_DIIS = 0

    6    -468.1019264879      8.44E-04  00000
Ite = 7 IFIte = 6 Thresh = 1.00e-11
Using dP: JK
Finding J and K together
 ML is being used
 Job number = 22, Threshold = 1.00E-11
Integral type ranges set in mkLRange.C for JobNum: 22  <1-21|1-21>
 MakeJK  time:  CPU       4.09 s  wall       4.09 s
Fock build time:  4.09 s (CPU) 4.09 s (wall)
DIIS Errors:  Max 5.51E-03 RMS 6.56E-04

Current DIIS subspace size = 7
REM_GRID_RESTART_DIIS = 0

    7    -468.1155500491      6.56E-04  00000
Ite = 8 IFIte = 7 Thresh = 1.00e-11
Using dP: JK
Finding J and K together
 ML is being used
 Job number = 22, Threshold = 1.00E-11
Integral type ranges set in mkLRange.C for JobNum: 22  <1-21|1-21>
 MakeJK  time:  CPU       4.09 s  wall       4.10 s
Fock build time:  4.09 s (CPU) 4.10 s (wall)
DIIS Errors:  Max 4.01E-03 RMS 4.65E-04

Current DIIS subspace size = 8
REM_GRID_RESTART_DIIS = 0

    8    -468.1225868265      4.65E-04  00000
Ite = 9 IFIte = 8 Thresh = 1.00e-11
Using dP: JK
Finding J and K together
 ML is being used
 Job number = 22, Threshold = 1.00E-11
Integral type ranges set in mkLRange.C for JobNum: 22  <1-21|1-21>
 MakeJK  time:  CPU       4.11 s  wall       4.11 s
Fock build time:  4.11 s (CPU) 4.11 s (wall)
DIIS Errors:  Max 3.44E-03 RMS 3.79E-04

Current DIIS subspace size = 9
REM_GRID_RESTART_DIIS = 0

    9    -468.1259737712      3.79E-04  00000
Ite = 10 IFIte = 9 Thresh = 1.00e-11
Using dP: JK
Finding J and K together
 ML is being used
 Job number = 22, Threshold = 1.00E-11
Integral type ranges set in mkLRange.C for JobNum: 22  <1-21|1-21>
 MakeJK  time:  CPU       4.17 s  wall       4.17 s
Fock build time:  4.17 s (CPU) 4.17 s (wall)
DIIS Errors:  Max 2.08E-03 RMS 2.96E-04

Current DIIS subspace size = 10
REM_GRID_RESTART_DIIS = 0

   10    -468.1283667302      2.96E-04  00000
Ite = 11 IFIte = 10 Thresh = 1.00e-11
Using dP: JK
Finding J and K together
 ML is being used
 Job number = 22, Threshold = 1.00E-11
Integral type ranges set in mkLRange.C for JobNum: 22  <1-21|1-21>
 MakeJK  time:  CPU       4.10 s  wall       4.10 s
Fock build time:  4.10 s (CPU) 4.10 s (wall)
DIIS Errors:  Max 1.97E-03 RMS 2.62E-04

Current DIIS subspace size = 11
REM_GRID_RESTART_DIIS = 0

   11    -468.1311826890      2.62E-04  00000
Ite = 12 IFIte = 11 Thresh = 1.00e-11
Using dP: JK
Finding J and K together
 ML is being used
 Job number = 22, Threshold = 1.00E-11
Integral type ranges set in mkLRange.C for JobNum: 22  <1-21|1-21>
 MakeJK  time:  CPU       4.21 s  wall       4.21 s
Fock build time:  4.21 s (CPU) 4.21 s (wall)
DIIS Errors:  Max 1.61E-03 RMS 2.37E-04

Current DIIS subspace size = 12
REM_GRID_RESTART_DIIS = 0

   12    -468.1329330716      2.37E-04  00000
Ite = 13 IFIte = 12 Thresh = 1.00e-11
Using dP: JK
Finding J and K together
 ML is being used
 Job number = 22, Threshold = 1.00E-11
Integral type ranges set in mkLRange.C for JobNum: 22  <1-21|1-21>
 MakeJK  time:  CPU       4.10 s  wall       4.11 s
Fock build time:  4.10 s (CPU) 4.11 s (wall)
DIIS Errors:  Max 1.49E-03 RMS 2.14E-04

Current DIIS subspace size = 13
REM_GRID_RESTART_DIIS = 0

   13    -468.1347247038      2.14E-04  00000
Ite = 14 IFIte = 13 Thresh = 1.00e-11
Using dP: JK
Finding J and K together
 ML is being used
 Job number = 22, Threshold = 1.00E-11
Integral type ranges set in mkLRange.C for JobNum: 22  <1-21|1-21>
 MakeJK  time:  CPU       4.09 s  wall       4.09 s
Fock build time:  4.09 s (CPU) 4.09 s (wall)
DIIS Errors:  Max 1.36E-03 RMS 1.94E-04

Current DIIS subspace size = 14
REM_GRID_RESTART_DIIS = 0

   14    -468.1370000917      1.94E-04  00000
Ite = 15 IFIte = 14 Thresh = 1.00e-11
Using dP: JK
Finding J and K together
 ML is being used
 Job number = 22, Threshold = 1.00E-11
Integral type ranges set in mkLRange.C for JobNum: 22  <1-21|1-21>
 MakeJK  time:  CPU       4.09 s  wall       4.09 s
Fock build time:  4.10 s (CPU) 4.10 s (wall)
DIIS Errors:  Max 1.35E-03 RMS 1.86E-04

Current DIIS subspace size = 15
REM_GRID_RESTART_DIIS = 0

   15    -468.1393024633      1.86E-04  00000
Ite = 16 IFIte = 0 Thresh = 1.00e-11
Finding J and K together
 Job number = 22, Threshold = 1.00E-11
Integral type ranges set in mkLRange.C for JobNum: 22  <1-21|1-21>
 MakeJK  time:  CPU       4.10 s  wall       4.10 s
Fock build time:  4.10 s (CPU) 4.10 s (wall)
DIIS Errors:  Max 2.52E-03 RMS 2.73E-04

Current DIIS subspace size = 15
REM_GRID_RESTART_DIIS = 0

   16    -468.1422945748      2.73E-04  00000
Ite = 17 IFIte = 1 Thresh = 1.00e-11
Using dP: JK
Finding J and K together
 ML is being used
 Job number = 22, Threshold = 1.00E-11
Integral type ranges set in mkLRange.C for JobNum: 22  <1-21|1-21>
 MakeJK  time:  CPU       4.10 s  wall       4.11 s
Fock build time:  4.10 s (CPU) 4.11 s (wall)
DIIS Errors:  Max 1.13E-03 RMS 1.62E-04

Current DIIS subspace size = 15
REM_GRID_RESTART_DIIS = 0

   17    -468.1430120575      1.62E-04  00000
Ite = 18 IFIte = 2 Thresh = 1.00e-11
Using dP: JK
Finding J and K together
 ML is being used
 Job number = 22, Threshold = 1.00E-11
Integral type ranges set in mkLRange.C for JobNum: 22  <1-21|1-21>
 MakeJK  time:  CPU       4.09 s  wall       4.09 s
Fock build time:  4.09 s (CPU) 4.09 s (wall)
DIIS Errors:  Max 7.70E-03 RMS 7.03E-04

Current DIIS subspace size = 15
REM_GRID_RESTART_DIIS = 0

   18    -468.1453952203      7.03E-04  00000
Ite = 19 IFIte = 3 Thresh = 1.00e-11
Using dP: JK
Finding J and K together
 ML is being used
 Job number = 22, Threshold = 1.00E-11
Integral type ranges set in mkLRange.C for JobNum: 22  <1-21|1-21>
 MakeJK  time:  CPU       4.09 s  wall       4.10 s
Fock build time:  4.09 s (CPU) 4.10 s (wall)
DIIS Errors:  Max 3.89E-03 RMS 3.67E-04

Current DIIS subspace size = 15
REM_GRID_RESTART_DIIS = 0

   19    -468.1452388093      3.67E-04  00000
Ite = 20 IFIte = 4 Thresh = 1.00e-11
Using dP: JK
Finding J and K together
 ML is being used
 Job number = 22, Threshold = 1.00E-11
Integral type ranges set in mkLRange.C for JobNum: 22  <1-21|1-21>
 MakeJK  time:  CPU       4.10 s  wall       4.10 s
Fock build time:  4.10 s (CPU) 4.10 s (wall)
DIIS Errors:  Max 5.13E-03 RMS 4.72E-04

Current DIIS subspace size = 15
REM_GRID_RESTART_DIIS = 0

   20    -468.1456935266      4.72E-04  00000
Ite = 21 IFIte = 5 Thresh = 1.00e-11
Using dP: JK
Finding J and K together
 ML is being used
 Job number = 22, Threshold = 1.00E-11
Integral type ranges set in mkLRange.C for JobNum: 22  <1-21|1-21>
 MakeJK  time:  CPU       4.10 s  wall       4.10 s
Fock build time:  4.10 s (CPU) 4.10 s (wall)
DIIS Errors:  Max 5.69E-03 RMS 5.42E-04

Current DIIS subspace size = 15
REM_GRID_RESTART_DIIS = 0

   21    -468.1459019759      5.42E-04  00000
Ite = 22 IFIte = 6 Thresh = 1.00e-11
Using dP: JK
Finding J and K together
 ML is being used
 Job number = 22, Threshold = 1.00E-11
Integral type ranges set in mkLRange.C for JobNum: 22  <1-21|1-21>
 MakeJK  time:  CPU       4.09 s  wall       4.09 s
Fock build time:  4.09 s (CPU) 4.09 s (wall)
DIIS Errors:  Max 5.38E-03 RMS 5.19E-04

Current DIIS subspace size = 15
REM_GRID_RESTART_DIIS = 0

   22    -468.1459472708      5.19E-04  00000
Ite = 23 IFIte = 7 Thresh = 1.00e-11
Using dP: JK
Finding J and K together
 ML is being used
 Job number = 22, Threshold = 1.00E-11
Integral type ranges set in mkLRange.C for JobNum: 22  <1-21|1-21>
 MakeJK  time:  CPU       4.09 s  wall       4.09 s
Fock build time:  4.09 s (CPU) 4.09 s (wall)
DIIS Errors:  Max 3.28E-03 RMS 3.12E-04

Current DIIS subspace size = 15
REM_GRID_RESTART_DIIS = 0

   23    -468.1462292738      3.12E-04  00000
Ite = 24 IFIte = 8 Thresh = 1.00e-11
Using dP: JK
Finding J and K together
 ML is being used
 Job number = 22, Threshold = 1.00E-11
Integral type ranges set in mkLRange.C for JobNum: 22  <1-21|1-21>
 MakeJK  time:  CPU       4.18 s  wall       4.19 s
Fock build time:  4.18 s (CPU) 4.19 s (wall)
DIIS Errors:  Max 8.69E-04 RMS 8.25E-05

Current DIIS subspace size = 15
REM_GRID_RESTART_DIIS = 0

   24    -468.1463909627      8.25E-05  00000
Ite = 25 IFIte = 9 Thresh = 1.00e-11
Using dP: JK
Finding J and K together
 ML is being used
 Job number = 22, Threshold = 1.00E-11
Integral type ranges set in mkLRange.C for JobNum: 22  <1-21|1-21>
 MakeJK  time:  CPU       4.10 s  wall       4.10 s
Fock build time:  4.10 s (CPU) 4.10 s (wall)
DIIS Errors:  Max 5.56E-04 RMS 5.60E-05

Current DIIS subspace size = 15
REM_GRID_RESTART_DIIS = 0

   25    -468.1464052758      5.60E-05  00000
Ite = 26 IFIte = 10 Thresh = 1.00e-11
Using dP: JK
Finding J and K together
 ML is being used
 Job number = 22, Threshold = 1.00E-11
Integral type ranges set in mkLRange.C for JobNum: 22  <1-21|1-21>
 MakeJK  time:  CPU       4.14 s  wall       4.14 s
Fock build time:  4.14 s (CPU) 4.14 s (wall)
DIIS Errors:  Max 6.74E-04 RMS 6.30E-05

Current DIIS subspace size = 15
REM_GRID_RESTART_DIIS = 0

   26    -468.1464070221      6.30E-05  00000
Ite = 27 IFIte = 11 Thresh = 1.00e-11
Using dP: JK
Finding J and K together
 ML is being used
 Job number = 22, Threshold = 1.00E-11
Integral type ranges set in mkLRange.C for JobNum: 22  <1-21|1-21>
 MakeJK  time:  CPU       4.18 s  wall       4.18 s
Fock build time:  4.18 s (CPU) 4.18 s (wall)
DIIS Errors:  Max 4.57E-04 RMS 4.63E-05

Current DIIS subspace size = 15
REM_GRID_RESTART_DIIS = 0

   27    -468.1464112952      4.63E-05  00000
Ite = 28 IFIte = 12 Thresh = 1.00e-11
Using dP: JK
Finding J and K together
 ML is being used
 Job number = 22, Threshold = 1.00E-11
Integral type ranges set in mkLRange.C for JobNum: 22  <1-21|1-21>
 MakeJK  time:  CPU       4.10 s  wall       4.10 s
Fock build time:  4.10 s (CPU) 4.10 s (wall)
DIIS Errors:  Max 6.10E-05 RMS 5.71E-06

Current DIIS subspace size = 15
REM_GRID_RESTART_DIIS = 0

   28    -468.1464163410      5.71E-06  00000
Ite = 29 IFIte = 13 Thresh = 1.00e-11
Using dP: JK
Finding J and K together
 ML is being used
 Job number = 22, Threshold = 1.00E-11
Integral type ranges set in mkLRange.C for JobNum: 22  <1-21|1-21>
 MakeJK  time:  CPU       4.09 s  wall       4.09 s
Fock build time:  4.09 s (CPU) 4.09 s (wall)
DIIS Errors:  Max 2.61E-05 RMS 3.14E-06

Current DIIS subspace size = 15
REM_GRID_RESTART_DIIS = 0

   29    -468.1464167423      3.14E-06  00000
Ite = 30 IFIte = 14 Thresh = 1.00e-11
Using dP: JK
Finding J and K together
 ML is being used
 Job number = 22, Threshold = 1.00E-11
Integral type ranges set in mkLRange.C for JobNum: 22  <1-21|1-21>
 MakeJK  time:  CPU       4.10 s  wall       4.10 s
Fock build time:  4.10 s (CPU) 4.10 s (wall)
DIIS Errors:  Max 5.93E-05 RMS 5.59E-06

Current DIIS subspace size = 15
REM_GRID_RESTART_DIIS = 0

   30    -468.1464167981      5.59E-06  00000
Ite = 31 IFIte = 0 Thresh = 1.00e-11
Finding J and K together
 Job number = 22, Threshold = 1.00E-11
Integral type ranges set in mkLRange.C for JobNum: 22  <1-21|1-21>
 MakeJK  time:  CPU       4.08 s  wall       4.09 s
Fock build time:  4.09 s (CPU) 4.09 s (wall)
DIIS Errors:  Max 6.46E-06 RMS 7.32E-07

Current DIIS subspace size = 15
REM_GRID_RESTART_DIIS = 0

   31    -468.1464169022      7.32E-07  00000
Ite = 32 IFIte = 1 Thresh = 1.00e-11
Using dP: JK
Finding J and K together
 ML is being used
 Job number = 22, Threshold = 1.00E-11
Integral type ranges set in mkLRange.C for JobNum: 22  <1-21|1-21>
 MakeJK  time:  CPU       4.09 s  wall       4.09 s
Fock build time:  4.09 s (CPU) 4.09 s (wall)
DIIS Errors:  Max 6.46E-06 RMS 7.25E-07

Current DIIS subspace size = 15
REM_GRID_RESTART_DIIS = 0

   32    -468.1464169112      7.25E-07  00000
Ite = 33 IFIte = 2 Thresh = 1.00e-11
Using dP: JK
Finding J and K together
 ML is being used
 Job number = 22, Threshold = 1.00E-11
Integral type ranges set in mkLRange.C for JobNum: 22  <1-21|1-21>
 MakeJK  time:  CPU       4.09 s  wall       4.10 s
Fock build time:  4.09 s (CPU) 4.10 s (wall)
DIIS Errors:  Max 4.14E-06 RMS 3.85E-07

Current DIIS subspace size = 15
REM_GRID_RESTART_DIIS = 0

   33    -468.1464169172      3.85E-07  00000
Ite = 34 IFIte = 3 Thresh = 1.00e-11
Using dP: JK
Finding J and K together
 ML is being used
 Job number = 22, Threshold = 1.00E-11
Integral type ranges set in mkLRange.C for JobNum: 22  <1-21|1-21>
 MakeJK  time:  CPU       4.10 s  wall       4.10 s
Fock build time:  4.10 s (CPU) 4.10 s (wall)
DIIS Errors:  Max 1.65E-06 RMS 1.96E-07

Current DIIS subspace size = 15
REM_GRID_RESTART_DIIS = 0

   34    -468.1464169191      1.96E-07  00000
Ite = 35 IFIte = 4 Thresh = 1.00e-11
Using dP: JK
Finding J and K together
 ML is being used
 Job number = 22, Threshold = 1.00E-11
Integral type ranges set in mkLRange.C for JobNum: 22  <1-21|1-21>
 MakeJK  time:  CPU       4.09 s  wall       4.09 s
Fock build time:  4.09 s (CPU) 4.09 s (wall)
DIIS Errors:  Max 6.85E-07 RMS 6.10E-08

Current DIIS subspace size = 15
REM_GRID_RESTART_DIIS = 0

   35    -468.1464169197      6.10E-08  00000
Ite = 36 IFIte = 5 Thresh = 1.00e-11
Using dP: JK
Finding J and K together
 ML is being used
 Job number = 22, Threshold = 1.00E-11
Integral type ranges set in mkLRange.C for JobNum: 22  <1-21|1-21>
 MakeJK  time:  CPU       4.09 s  wall       4.09 s
Fock build time:  4.09 s (CPU) 4.09 s (wall)
DIIS Errors:  Max 2.09E-07 RMS 2.39E-08

Current DIIS subspace size = 15
REM_GRID_RESTART_DIIS = 0

   36    -468.1464169197      2.39E-08  00000
Ite = 37 IFIte = 6 Thresh = 1.00e-11
Using dP: JK
Finding J and K together
 ML is being used
 Job number = 22, Threshold = 1.00E-11
Integral type ranges set in mkLRange.C for JobNum: 22  <1-21|1-21>
 MakeJK  time:  CPU       4.08 s  wall       4.09 s
Fock build time:  4.08 s (CPU) 4.09 s (wall)
DIIS Errors:  Max 1.13E-07 RMS 1.30E-08

Current DIIS subspace size = 15
REM_GRID_RESTART_DIIS = 0

   37    -468.1464169198      1.30E-08  00000
Ite = 38 IFIte = 7 Thresh = 1.00e-11
Using dP: JK
Finding J and K together
 ML is being used
 Job number = 22, Threshold = 1.00E-11
Integral type ranges set in mkLRange.C for JobNum: 22  <1-21|1-21>
 MakeJK  time:  CPU       4.08 s  wall       4.08 s
Fock build time:  4.08 s (CPU) 4.08 s (wall)
DIIS Errors:  Max 6.39E-08 RMS 6.58E-09

Current DIIS subspace size = 15
REM_GRID_RESTART_DIIS = 0

   38    -468.1464169198      6.58E-09  00000 Convergence criterion met
 ---------------------------------------
 SCF time:  CPU 154.53 s  wall 154.64 s
 SCF   energy in the final basis set = -468.14641692
 Total energy in the final basis set = -468.14641692
drvman_main.C: 73: calling DrvMan  Calculating analytic gradient of the SCF energy
drvman.C : 218: Calculating analytic gradient of the SCF energy
drvman.C: 244: calling SCF_Grad for normal SCF gradient
 Job number = 111, Threshold = 1.00E-11
Integral type ranges set in mkLRange.C for JobNum: 11  <1-21|40-40>
Finding J and K together
 ML is being used
 Job number = 122, Threshold = 1.00E-11
Integral type ranges set in mkLRange.C for JobNum: 22  <1-21|1-21>
 MakeJK  time:  CPU      10.63 s  wall      10.62 s
 Gradient of SCF Energy
            1           2           3           4
    1   5.0765287  -1.0967638  -3.9565613  -0.0232036
    2  -0.1861271   2.5267406  -2.6425273   0.3019139
    3  -1.4851926  -1.4972806  -1.1432117   4.1256849
 Max gradient component =       5.077E+00
 RMS gradient           =       2.564E+00
drvman.C: 248: out of SCF_Grad for normal SCF gradient
 Gradient time:  CPU 27.18 s  wall 27.17 s
 ------------------------------------------------------------------------------
                     drvman        : Timing summary (seconds)
 ------------------------------------------------------------------------------
     job step          cpu (% of tot)      sys (% of tot)     wall (% of tot)
 ------------------------------------------------------------------------------
 ------------------------------------------------------------------------------
   Grand Totals     0.2718E+02          0.7000E-05          0.2717E+02
 ------------------------------------------------------------------------------
drvman_main.C: 77: out of DrvMan  Time for this dynamics step: 183.8 s (CPU) 183.9 s (wall)

TIME STEP #3 (t = 40.000 a.u. = 0.96755 fs)
--------------------------------------
 Instantaneous Temperature = 10847.8 K
 ----------------------------------------------------------------
             Standard Nuclear Orientation (Angstroms)
    I     Atom           X                Y                Z
 ----------------------------------------------------------------
    1      Pt     -1.2453587914     2.5357206608     0.0042632040
    2      Pt      0.2148318962     1.1207597542     0.0046966303
    3      Pt      0.2357289266     2.9217627386     0.1126971399
    4      Pt     -0.4026420314     1.9647668464    -1.3015969742
 ----------------------------------------------------------------
 Nuclear Repulsion Energy =   591.1448611772 hartrees
 There are       36 alpha and       36 beta electrons

                       Distance Matrix (Angstroms)
             Pt(  1)   Pt(  2)   Pt(  3)
   Pt(  2)  2.033291
   Pt(  3)  1.534408  1.804359
   Pt(  4)  1.655727  1.673328  1.823071

 Applying Cartesian multipole field
    Component          Value
    ---------          -----
     (2,0,0)        1.00000E-11
     (0,2,0)        2.00000E-11
     (0,0,2)       -3.00000E-11
 Nucleus-field energy     =     0.0000000237 hartrees
 ENuRep (before)= 591.1448611772
 ENucField = 0.0000000237
 ENuRep (after) = 591.1448612009
 Job number = 2, Threshold = 1.00E-11
Integral type ranges set in mkLRange.C for JobNum: 2  <1-21|1-21>
Symmetry turned off temporarily
Symmetry turned back on
 Job number = 2, Threshold = 1.00E-11
Integral type ranges set in mkLRange.C for JobNum: 2  <1-21|1-21>
Symmetry turned off temporarily
Symmetry turned back on
Integral type ranges set in mkLRange.C for JobNum: 18  <1-21|22-39>
Integral type ranges set in mkLRange.C for JobNum: 18  <1-21|22-39>
 Job number = 11, Threshold = 1.00E-11
Integral type ranges set in mkLRange.C for JobNum: 11  <1-21|40-40>
 Smallest overlap matrix eigenvalue = 1.20E-03
 Multipole matrices computed through 2nd order
 Guess from superposition of atomic densities
 Warning:  Energy on first SCF cycle will be non-variational
 SAD guess density has 72.000000 electrons
 SCF convergence criterion is 10**(-8)
 A restricted Hartree-Fock SCF calculation will be
 performed using Pulay DIIS extrapolation
 SCF converges when DIIS error is below 1.0E-08
Using Integral Screening
Finding J and K together
 ML is being used
 Job number = 22, Threshold = 1.00E-11
Integral type ranges set in mkLRange.C for JobNum: 22  <1-21|1-21>
 MakeJK  time:  CPU       2.14 s  wall       2.14 s
Fock build time:  2.14 s (CPU) 2.14 s (wall)
DIIS Errors:  Max 1.74E+00 RMS 1.56E-01

Current DIIS subspace size = 1
REM_GRID_RESTART_DIIS = 0

 ---------------------------------------
  Cycle       Energy         DIIS Error
 ---------------------------------------
    1    -481.5494498679      1.56E-01  00000
Ite = 2 IFIte = 1 Thresh = 1.00e-11
Finding J and K together
 Job number = 22, Threshold = 1.00E-11
Integral type ranges set in mkLRange.C for JobNum: 22  <1-21|1-21>
 MakeJK  time:  CPU       4.09 s  wall       4.09 s
Fock build time:  4.09 s (CPU) 4.09 s (wall)
DIIS Errors:  Max 1.02E-01 RMS 1.21E-02

Current DIIS subspace size = 2
REM_GRID_RESTART_DIIS = 0

    2    -468.1672088362      1.21E-02  00000
Ite = 3 IFIte = 2 Thresh = 1.00e-11
Using dP: JK
Finding J and K together
 ML is being used
 Job number = 22, Threshold = 1.00E-11
Integral type ranges set in mkLRange.C for JobNum: 22  <1-21|1-21>
 MakeJK  time:  CPU       4.09 s  wall       4.09 s
Fock build time:  4.09 s (CPU) 4.09 s (wall)
DIIS Errors:  Max 7.92E-02 RMS 7.25E-03

Current DIIS subspace size = 3
REM_GRID_RESTART_DIIS = 0

    3    -468.2478761422      7.25E-03  00000
Ite = 4 IFIte = 3 Thresh = 1.00e-11
Using dP: JK
Finding J and K together
 ML is being used
 Job number = 22, Threshold = 1.00E-11
Integral type ranges set in mkLRange.C for JobNum: 22  <1-21|1-21>
 MakeJK  time:  CPU       4.10 s  wall       4.10 s
Fock build time:  4.10 s (CPU) 4.10 s (wall)
DIIS Errors:  Max 2.31E-02 RMS 2.22E-03

Current DIIS subspace size = 4
REM_GRID_RESTART_DIIS = 0

    4    -468.3083311087      2.22E-03  00000
Ite = 5 IFIte = 4 Thresh = 1.00e-11
Using dP: JK
Finding J and K together
 ML is being used
 Job number = 22, Threshold = 1.00E-11
Integral type ranges set in mkLRange.C for JobNum: 22  <1-21|1-21>
 MakeJK  time:  CPU       4.09 s  wall       4.10 s
Fock build time:  4.10 s (CPU) 4.10 s (wall)
DIIS Errors:  Max 1.33E-02 RMS 1.19E-03

Current DIIS subspace size = 5
REM_GRID_RESTART_DIIS = 0

    5    -468.3228494515      1.19E-03  00000
Ite = 6 IFIte = 5 Thresh = 1.00e-11
Using dP: JK
Finding J and K together
 ML is being used
 Job number = 22, Threshold = 1.00E-11
Integral type ranges set in mkLRange.C for JobNum: 22  <1-21|1-21>
 MakeJK  time:  CPU       4.09 s  wall       4.09 s
Fock build time:  4.09 s (CPU) 4.09 s (wall)
DIIS Errors:  Max 5.44E-03 RMS 8.54E-04

Current DIIS subspace size = 6
REM_GRID_RESTART_DIIS = 0

    6    -468.3289223105      8.54E-04  00000
Ite = 7 IFIte = 6 Thresh = 1.00e-11
Using dP: JK
Finding J and K together
 ML is being used
 Job number = 22, Threshold = 1.00E-11
Integral type ranges set in mkLRange.C for JobNum: 22  <1-21|1-21>
 MakeJK  time:  CPU       4.10 s  wall       4.10 s
Fock build time:  4.10 s (CPU) 4.10 s (wall)
DIIS Errors:  Max 5.73E-03 RMS 6.66E-04

Current DIIS subspace size = 7
REM_GRID_RESTART_DIIS = 0

    7    -468.3431443830      6.66E-04  00000
Ite = 8 IFIte = 7 Thresh = 1.00e-11
Using dP: JK
Finding J and K together
 ML is being used
 Job number = 22, Threshold = 1.00E-11
Integral type ranges set in mkLRange.C for JobNum: 22  <1-21|1-21>
 MakeJK  time:  CPU       4.10 s  wall       4.10 s
Fock build time:  4.10 s (CPU) 4.10 s (wall)
DIIS Errors:  Max 4.05E-03 RMS 4.63E-04

Current DIIS subspace size = 8
REM_GRID_RESTART_DIIS = 0

    8    -468.3502555819      4.63E-04  00000
Ite = 9 IFIte = 8 Thresh = 1.00e-11
Using dP: JK
Finding J and K together
 ML is being used
 Job number = 22, Threshold = 1.00E-11
Integral type ranges set in mkLRange.C for JobNum: 22  <1-21|1-21>
 MakeJK  time:  CPU       4.18 s  wall       4.18 s
Fock build time:  4.18 s (CPU) 4.18 s (wall)
DIIS Errors:  Max 3.45E-03 RMS 3.70E-04

Current DIIS subspace size = 9
REM_GRID_RESTART_DIIS = 0

    9    -468.3535999344      3.70E-04  00000
Ite = 10 IFIte = 9 Thresh = 1.00e-11
Using dP: JK
Finding J and K together
 ML is being used
 Job number = 22, Threshold = 1.00E-11
Integral type ranges set in mkLRange.C for JobNum: 22  <1-21|1-21>
 MakeJK  time:  CPU       4.10 s  wall       4.11 s
Fock build time:  4.10 s (CPU) 4.11 s (wall)
DIIS Errors:  Max 2.01E-03 RMS 2.81E-04

Current DIIS subspace size = 10
REM_GRID_RESTART_DIIS = 0

   10    -468.3558045632      2.81E-04  00000
Ite = 11 IFIte = 10 Thresh = 1.00e-11
Using dP: JK
Finding J and K together
 ML is being used
 Job number = 22, Threshold = 1.00E-11
Integral type ranges set in mkLRange.C for JobNum: 22  <1-21|1-21>
 MakeJK  time:  CPU       4.19 s  wall       4.19 s
Fock build time:  4.19 s (CPU) 4.19 s (wall)
DIIS Errors:  Max 1.86E-03 RMS 2.49E-04

Current DIIS subspace size = 11
REM_GRID_RESTART_DIIS = 0

   11    -468.3583204504      2.49E-04  00000
Ite = 12 IFIte = 11 Thresh = 1.00e-11
Using dP: JK
Finding J and K together
 ML is being used
 Job number = 22, Threshold = 1.00E-11
Integral type ranges set in mkLRange.C for JobNum: 22  <1-21|1-21>
 MakeJK  time:  CPU       4.10 s  wall       4.10 s
Fock build time:  4.10 s (CPU) 4.10 s (wall)
DIIS Errors:  Max 1.54E-03 RMS 2.24E-04

Current DIIS subspace size = 12
REM_GRID_RESTART_DIIS = 0

   12    -468.3598229592      2.24E-04  00000
Ite = 13 IFIte = 12 Thresh = 1.00e-11
Using dP: JK
Finding J and K together
 ML is being used
 Job number = 22, Threshold = 1.00E-11
Integral type ranges set in mkLRange.C for JobNum: 22  <1-21|1-21>
 MakeJK  time:  CPU       4.09 s  wall       4.10 s
Fock build time:  4.09 s (CPU) 4.10 s (wall)
DIIS Errors:  Max 1.45E-03 RMS 2.02E-04

Current DIIS subspace size = 13
REM_GRID_RESTART_DIIS = 0

   13    -468.3614028774      2.02E-04  00000
Ite = 14 IFIte = 13 Thresh = 1.00e-11
Using dP: JK
Finding J and K together
 ML is being used
 Job number = 22, Threshold = 1.00E-11
Integral type ranges set in mkLRange.C for JobNum: 22  <1-21|1-21>
 MakeJK  time:  CPU       4.12 s  wall       4.12 s
Fock build time:  4.12 s (CPU) 4.12 s (wall)
DIIS Errors:  Max 1.31E-03 RMS 1.86E-04

Current DIIS subspace size = 14
REM_GRID_RESTART_DIIS = 0

   14    -468.3633394920      1.86E-04  00000
Ite = 15 IFIte = 14 Thresh = 1.00e-11
Using dP: JK
Finding J and K together
 ML is being used
 Job number = 22, Threshold = 1.00E-11
Integral type ranges set in mkLRange.C for JobNum: 22  <1-21|1-21>
 MakeJK  time:  CPU       4.09 s  wall       4.09 s
Fock build time:  4.09 s (CPU) 4.09 s (wall)
DIIS Errors:  Max 1.23E-03 RMS 1.76E-04

Current DIIS subspace size = 15
REM_GRID_RESTART_DIIS = 0

   15    -468.3656276415      1.76E-04  00000
Ite = 16 IFIte = 0 Thresh = 1.00e-11
Finding J and K together
 Job number = 22, Threshold = 1.00E-11
Integral type ranges set in mkLRange.C for JobNum: 22  <1-21|1-21>
 MakeJK  time:  CPU       4.08 s  wall       4.09 s
Fock build time:  4.08 s (CPU) 4.09 s (wall)
DIIS Errors:  Max 1.51E-03 RMS 1.97E-04

Current DIIS subspace size = 15
REM_GRID_RESTART_DIIS = 0

   16    -468.3667034328      1.97E-04  00000
Ite = 17 IFIte = 1 Thresh = 1.00e-11
Using dP: JK
Finding J and K together
 ML is being used
 Job number = 22, Threshold = 1.00E-11
Integral type ranges set in mkLRange.C for JobNum: 22  <1-21|1-21>
 MakeJK  time:  CPU       4.09 s  wall       4.09 s
Fock build time:  4.09 s (CPU) 4.09 s (wall)
DIIS Errors:  Max 2.08E-03 RMS 2.27E-04

Current DIIS subspace size = 15
REM_GRID_RESTART_DIIS = 0

   17    -468.3690470869      2.27E-04  00000
Ite = 18 IFIte = 2 Thresh = 1.00e-11
Using dP: JK
Finding J and K together
 ML is being used
 Job number = 22, Threshold = 1.00E-11
Integral type ranges set in mkLRange.C for JobNum: 22  <1-21|1-21>
 MakeJK  time:  CPU       4.08 s  wall       4.09 s
Fock build time:  4.08 s (CPU) 4.09 s (wall)
DIIS Errors:  Max 6.14E-03 RMS 5.53E-04

Current DIIS subspace size = 15
REM_GRID_RESTART_DIIS = 0

   18    -468.3712504151      5.53E-04  00000
Ite = 19 IFIte = 3 Thresh = 1.00e-11
Using dP: JK
Finding J and K together
 ML is being used
 Job number = 22, Threshold = 1.00E-11
Integral type ranges set in mkLRange.C for JobNum: 22  <1-21|1-21>
 MakeJK  time:  CPU       4.09 s  wall       4.09 s
Fock build time:  4.09 s (CPU) 4.10 s (wall)
DIIS Errors:  Max 3.09E-03 RMS 2.94E-04

Current DIIS subspace size = 15
REM_GRID_RESTART_DIIS = 0

   19    -468.3706666477      2.94E-04  00000
Ite = 20 IFIte = 4 Thresh = 1.00e-11
Using dP: JK
Finding J and K together
 ML is being used
 Job number = 22, Threshold = 1.00E-11
Integral type ranges set in mkLRange.C for JobNum: 22  <1-21|1-21>
 MakeJK  time:  CPU       4.10 s  wall       4.10 s
Fock build time:  4.10 s (CPU) 4.10 s (wall)
DIIS Errors:  Max 4.18E-03 RMS 3.75E-04

Current DIIS subspace size = 15
REM_GRID_RESTART_DIIS = 0

   20    -468.3712330653      3.75E-04  00000
Ite = 21 IFIte = 5 Thresh = 1.00e-11
Using dP: JK
Finding J and K together
 ML is being used
 Job number = 22, Threshold = 1.00E-11
Integral type ranges set in mkLRange.C for JobNum: 22  <1-21|1-21>
 MakeJK  time:  CPU       4.10 s  wall       4.10 s
Fock build time:  4.10 s (CPU) 4.10 s (wall)
DIIS Errors:  Max 4.57E-03 RMS 4.27E-04

Current DIIS subspace size = 15
REM_GRID_RESTART_DIIS = 0

   21    -468.3717790782      4.27E-04  00000
Ite = 22 IFIte = 6 Thresh = 1.00e-11
Using dP: JK
Finding J and K together
 ML is being used
 Job number = 22, Threshold = 1.00E-11
Integral type ranges set in mkLRange.C for JobNum: 22  <1-21|1-21>
 MakeJK  time:  CPU       4.11 s  wall       4.11 s
Fock build time:  4.11 s (CPU) 4.11 s (wall)
DIIS Errors:  Max 4.06E-03 RMS 3.79E-04

Current DIIS subspace size = 15
REM_GRID_RESTART_DIIS = 0

   22    -468.3720349105      3.79E-04  00000
Ite = 23 IFIte = 7 Thresh = 1.00e-11
Using dP: JK
Finding J and K together
 ML is being used
 Job number = 22, Threshold = 1.00E-11
Integral type ranges set in mkLRange.C for JobNum: 22  <1-21|1-21>
 MakeJK  time:  CPU       4.18 s  wall       4.19 s
Fock build time:  4.18 s (CPU) 4.19 s (wall)
DIIS Errors:  Max 1.22E-03 RMS 1.14E-04

Current DIIS subspace size = 15
REM_GRID_RESTART_DIIS = 0

   23    -468.3722552045      1.14E-04  00000
Ite = 24 IFIte = 8 Thresh = 1.00e-11
Using dP: JK
Finding J and K together
 ML is being used
 Job number = 22, Threshold = 1.00E-11
Integral type ranges set in mkLRange.C for JobNum: 22  <1-21|1-21>
 MakeJK  time:  CPU       4.09 s  wall       4.09 s
Fock build time:  4.09 s (CPU) 4.09 s (wall)
DIIS Errors:  Max 7.92E-04 RMS 7.27E-05

Current DIIS subspace size = 15
REM_GRID_RESTART_DIIS = 0

   24    -468.3723278748      7.27E-05  00000
Ite = 25 IFIte = 9 Thresh = 1.00e-11
Using dP: JK
Finding J and K together
 ML is being used
 Job number = 22, Threshold = 1.00E-11
Integral type ranges set in mkLRange.C for JobNum: 22  <1-21|1-21>
 MakeJK  time:  CPU       4.10 s  wall       4.11 s
Fock build time:  4.10 s (CPU) 4.11 s (wall)
DIIS Errors:  Max 1.11E-04 RMS 1.35E-05

Current DIIS subspace size = 15
REM_GRID_RESTART_DIIS = 0

   25    -468.3723414484      1.35E-05  00000
Ite = 26 IFIte = 10 Thresh = 1.00e-11
Using dP: JK
Finding J and K together
 ML is being used
 Job number = 22, Threshold = 1.00E-11
Integral type ranges set in mkLRange.C for JobNum: 22  <1-21|1-21>
[...]
Integral type ranges set in mkLRange.C for JobNum: 22  <1-21|1-21>
 MakeJK  time:  CPU       3.83 s  wall       3.83 s
Fock build time:  3.83 s (CPU) 3.83 s (wall)
DIIS Errors:  Max 4.02E-03 RMS 2.61E-04

Current DIIS subspace size = 7
REM_GRID_RESTART_DIIS = 0

    7    -472.8168093627      2.61E-04  00000
Ite = 8 IFIte = 7 Thresh = 1.00e-11
Using dP: JK
Finding J and K together
 ML is being used
 Job number = 22, Threshold = 1.00E-11
Integral type ranges set in mkLRange.C for JobNum: 22  <1-21|1-21>
 MakeJK  time:  CPU       3.83 s  wall       3.84 s
Fock build time:  3.83 s (CPU) 3.84 s (wall)
DIIS Errors:  Max 1.15E-03 RMS 1.17E-04

Current DIIS subspace size = 8
REM_GRID_RESTART_DIIS = 0

    8    -472.8173022084      1.17E-04  00000
Ite = 9 IFIte = 8 Thresh = 1.00e-11
Using dP: JK
Finding J and K together
 ML is being used
 Job number = 22, Threshold = 1.00E-11
Integral type ranges set in mkLRange.C for JobNum: 22  <1-21|1-21>
 MakeJK  time:  CPU       3.84 s  wall       3.84 s
Fock build time:  3.84 s (CPU) 3.84 s (wall)
DIIS Errors:  Max 9.30E-04 RMS 9.11E-05

Current DIIS subspace size = 9
REM_GRID_RESTART_DIIS = 0

    9    -472.8175294907      9.11E-05  00000
Ite = 10 IFIte = 9 Thresh = 1.00e-11
Using dP: JK
Finding J and K together
 ML is being used
 Job number = 22, Threshold = 1.00E-11
Integral type ranges set in mkLRange.C for JobNum: 22  <1-21|1-21>
 MakeJK  time:  CPU       3.82 s  wall       3.83 s
Fock build time:  3.82 s (CPU) 3.83 s (wall)
DIIS Errors:  Max 7.97E-04 RMS 7.31E-05

Current DIIS subspace size = 10
REM_GRID_RESTART_DIIS = 0

   10    -472.8175919109      7.31E-05  00000
Ite = 11 IFIte = 10 Thresh = 1.00e-11
Using dP: JK
Finding J and K together
 ML is being used
 Job number = 22, Threshold = 1.00E-11
Integral type ranges set in mkLRange.C for JobNum: 22  <1-21|1-21>
 MakeJK  time:  CPU       4.02 s  wall       4.02 s
Fock build time:  4.02 s (CPU) 4.02 s (wall)
DIIS Errors:  Max 7.36E-04 RMS 5.50E-05

Current DIIS subspace size = 11
REM_GRID_RESTART_DIIS = 0

   11    -472.8176917436      5.50E-05  00000
Ite = 12 IFIte = 11 Thresh = 1.00e-11
Using dP: JK
Finding J and K together
 ML is being used
 Job number = 22, Threshold = 1.00E-11
Integral type ranges set in mkLRange.C for JobNum: 22  <1-21|1-21>
 MakeJK  time:  CPU       3.85 s  wall       3.86 s
Fock build time:  3.85 s (CPU) 3.86 s (wall)
DIIS Errors:  Max 5.81E-04 RMS 3.98E-05

Current DIIS subspace size = 12
REM_GRID_RESTART_DIIS = 0

   12    -472.8177973374      3.98E-05  00000
Ite = 13 IFIte = 12 Thresh = 1.00e-11
Using dP: JK
Finding J and K together
 ML is being used
 Job number = 22, Threshold = 1.00E-11
Integral type ranges set in mkLRange.C for JobNum: 22  <1-21|1-21>
 MakeJK  time:  CPU       3.86 s  wall       3.86 s
Fock build time:  3.86 s (CPU) 3.86 s (wall)
DIIS Errors:  Max 3.92E-04 RMS 2.71E-05

Current DIIS subspace size = 13
REM_GRID_RESTART_DIIS = 0

   13    -472.8178770225      2.71E-05  00000
Ite = 14 IFIte = 13 Thresh = 1.00e-11
Using dP: JK
Finding J and K together
 ML is being used
 Job number = 22, Threshold = 1.00E-11
Integral type ranges set in mkLRange.C for JobNum: 22  <1-21|1-21>
 MakeJK  time:  CPU       3.90 s  wall       3.91 s
Fock build time:  3.90 s (CPU) 3.91 s (wall)
DIIS Errors:  Max 2.65E-04 RMS 1.93E-05

Current DIIS subspace size = 14
REM_GRID_RESTART_DIIS = 0

   14    -472.8179130025      1.93E-05  00000
Ite = 15 IFIte = 14 Thresh = 1.00e-11
Using dP: JK
Finding J and K together
 ML is being used
 Job number = 22, Threshold = 1.00E-11
Integral type ranges set in mkLRange.C for JobNum: 22  <1-21|1-21>
 MakeJK  time:  CPU       3.80 s  wall       3.80 s
Fock build time:  3.80 s (CPU) 3.80 s (wall)
DIIS Errors:  Max 1.91E-04 RMS 1.40E-05

Current DIIS subspace size = 15
REM_GRID_RESTART_DIIS = 0

   15    -472.8179280483      1.40E-05  00000
Ite = 16 IFIte = 0 Thresh = 1.00e-11
Finding J and K together
 Job number = 22, Threshold = 1.00E-11
Integral type ranges set in mkLRange.C for JobNum: 22  <1-21|1-21>
 MakeJK  time:  CPU       3.80 s  wall       3.80 s
Fock build time:  3.80 s (CPU) 3.80 s (wall)
DIIS Errors:  Max 1.44E-04 RMS 1.12E-05

Current DIIS subspace size = 15
REM_GRID_RESTART_DIIS = 0

   16    -472.8179367429      1.12E-05  00000
Ite = 17 IFIte = 1 Thresh = 1.00e-11
Using dP: JK
Finding J and K together
 ML is being used
 Job number = 22, Threshold = 1.00E-11
Integral type ranges set in mkLRange.C for JobNum: 22  <1-21|1-21>
 MakeJK  time:  CPU       3.79 s  wall       3.79 s
Fock build time:  3.79 s (CPU) 3.79 s (wall)
DIIS Errors:  Max 1.07E-04 RMS 1.01E-05

Current DIIS subspace size = 15
REM_GRID_RESTART_DIIS = 0

   17    -472.8179420684      1.01E-05  00000
Ite = 18 IFIte = 2 Thresh = 1.00e-11
Using dP: JK
Finding J and K together
 ML is being used
 Job number = 22, Threshold = 1.00E-11
Integral type ranges set in mkLRange.C for JobNum: 22  <1-21|1-21>
 MakeJK  time:  CPU       3.79 s  wall       3.79 s
Fock build time:  3.79 s (CPU) 3.80 s (wall)
DIIS Errors:  Max 8.96E-05 RMS 9.31E-06

Current DIIS subspace size = 15
REM_GRID_RESTART_DIIS = 0

   18    -472.8179450841      9.31E-06  00000
Ite = 19 IFIte = 3 Thresh = 1.00e-11
Using dP: JK
Finding J and K together
 ML is being used
 Job number = 22, Threshold = 1.00E-11
Integral type ranges set in mkLRange.C for JobNum: 22  <1-21|1-21>
 MakeJK  time:  CPU       3.79 s  wall       3.79 s
Fock build time:  3.79 s (CPU) 3.79 s (wall)
DIIS Errors:  Max 7.59E-05 RMS 9.06E-06

Current DIIS subspace size = 15
REM_GRID_RESTART_DIIS = 0

   19    -472.8179479602      9.06E-06  00000
Ite = 20 IFIte = 4 Thresh = 1.00e-11
Using dP: JK
Finding J and K together
 ML is being used
 Job number = 22, Threshold = 1.00E-11
Integral type ranges set in mkLRange.C for JobNum: 22  <1-21|1-21>
 MakeJK  time:  CPU       3.80 s  wall       3.80 s
Fock build time:  3.80 s (CPU) 3.80 s (wall)
DIIS Errors:  Max 7.14E-05 RMS 8.46E-06

Current DIIS subspace size = 15
REM_GRID_RESTART_DIIS = 0

   20    -472.8179512819      8.46E-06  00000
Ite = 21 IFIte = 5 Thresh = 1.00e-11
Using dP: JK
Finding J and K together
 ML is being used
 Job number = 22, Threshold = 1.00E-11
Integral type ranges set in mkLRange.C for JobNum: 22  <1-21|1-21>
 MakeJK  time:  CPU       3.80 s  wall       3.80 s
Fock build time:  3.80 s (CPU) 3.80 s (wall)
DIIS Errors:  Max 7.35E-05 RMS 8.35E-06

Current DIIS subspace size = 15
REM_GRID_RESTART_DIIS = 0

   21    -472.8179536643      8.35E-06  00000
Ite = 22 IFIte = 6 Thresh = 1.00e-11
Using dP: JK
Finding J and K together
 ML is being used
 Job number = 22, Threshold = 1.00E-11
Integral type ranges set in mkLRange.C for JobNum: 22  <1-21|1-21>
 MakeJK  time:  CPU       3.78 s  wall       3.79 s
Fock build time:  3.79 s (CPU) 3.79 s (wall)
DIIS Errors:  Max 7.65E-05 RMS 8.29E-06

Current DIIS subspace size = 15
REM_GRID_RESTART_DIIS = 0

   22    -472.8179554860      8.29E-06  00000
Ite = 23 IFIte = 7 Thresh = 1.00e-11
Using dP: JK
Finding J and K together
 ML is being used
 Job number = 22, Threshold = 1.00E-11
Integral type ranges set in mkLRange.C for JobNum: 22  <1-21|1-21>
 MakeJK  time:  CPU       3.79 s  wall       3.79 s
Fock build time:  3.79 s (CPU) 3.79 s (wall)
DIIS Errors:  Max 7.59E-05 RMS 8.10E-06

Current DIIS subspace size = 15
REM_GRID_RESTART_DIIS = 0

   23    -472.8179570659      8.10E-06  00000
Ite = 24 IFIte = 8 Thresh = 1.00e-11
Using dP: JK
Finding J and K together
 ML is being used
 Job number = 22, Threshold = 1.00E-11
Integral type ranges set in mkLRange.C for JobNum: 22  <1-21|1-21>
 MakeJK  time:  CPU       3.79 s  wall       3.79 s
Fock build time:  3.79 s (CPU) 3.79 s (wall)
DIIS Errors:  Max 7.72E-05 RMS 8.13E-06

Current DIIS subspace size = 15
REM_GRID_RESTART_DIIS = 0

   24    -472.8179585516      8.13E-06  00000
Ite = 25 IFIte = 9 Thresh = 1.00e-11
Using dP: JK
Finding J and K together
 ML is being used
 Job number = 22, Threshold = 1.00E-11
Integral type ranges set in mkLRange.C for JobNum: 22  <1-21|1-21>
 MakeJK  time:  CPU       3.78 s  wall       3.79 s
Fock build time:  3.78 s (CPU) 3.79 s (wall)
DIIS Errors:  Max 7.77E-05 RMS 8.08E-06

Current DIIS subspace size = 15
REM_GRID_RESTART_DIIS = 0

   25    -472.8179574691      8.08E-06  00000
Ite = 26 IFIte = 10 Thresh = 1.00e-11
Using dP: JK
Finding J and K together
 ML is being used
 Job number = 22, Threshold = 1.00E-11
Integral type ranges set in mkLRange.C for JobNum: 22  <1-21|1-21>
 MakeJK  time:  CPU       3.79 s  wall       3.80 s
Fock build time:  3.79 s (CPU) 3.80 s (wall)
DIIS Errors:  Max 7.67E-05 RMS 7.97E-06

Current DIIS subspace size = 15
REM_GRID_RESTART_DIIS = 0

   26    -472.8179554194      7.97E-06  00000
Ite = 27 IFIte = 11 Thresh = 1.00e-11
Using dP: JK
Finding J and K together
 ML is being used
 Job number = 22, Threshold = 1.00E-11
Integral type ranges set in mkLRange.C for JobNum: 22  <1-21|1-21>
 MakeJK  time:  CPU       3.89 s  wall       3.90 s
Fock build time:  3.89 s (CPU) 3.90 s (wall)
DIIS Errors:  Max 7.59E-05 RMS 7.92E-06

Current DIIS subspace size = 15
REM_GRID_RESTART_DIIS = 0

   27    -472.8179536023      7.92E-06  00000
Ite = 28 IFIte = 12 Thresh = 1.00e-11
Using dP: JK
Finding J and K together
 ML is being used
 Job number = 22, Threshold = 1.00E-11
Integral type ranges set in mkLRange.C for JobNum: 22  <1-21|1-21>
 MakeJK  time:  CPU       3.80 s  wall       3.80 s
Fock build time:  3.80 s (CPU) 3.80 s (wall)
DIIS Errors:  Max 7.14E-05 RMS 7.82E-06

Current DIIS subspace size = 15
REM_GRID_RESTART_DIIS = 0

   28    -472.8179503235      7.82E-06  00000
Ite = 29 IFIte = 13 Thresh = 1.00e-11
Using dP: JK
Finding J and K together
 ML is being used
 Job number = 22, Threshold = 1.00E-11
Integral type ranges set in mkLRange.C for JobNum: 22  <1-21|1-21>
 MakeJK  time:  CPU       3.86 s  wall       3.86 s
Fock build time:  3.86 s (CPU) 3.86 s (wall)
DIIS Errors:  Max 6.75E-05 RMS 7.51E-06

Current DIIS subspace size = 15
REM_GRID_RESTART_DIIS = 0

   29    -472.8179436722      7.51E-06  00000
Ite = 30 IFIte = 14 Thresh = 1.00e-11
Using dP: JK
Finding J and K together
 ML is being used
 Job number = 22, Threshold = 1.00E-11
Integral type ranges set in mkLRange.C for JobNum: 22  <1-21|1-21>
 MakeJK  time:  CPU       3.89 s  wall       3.90 s
Fock build time:  3.89 s (CPU) 3.90 s (wall)
DIIS Errors:  Max 6.21E-05 RMS 7.13E-06

Current DIIS subspace size = 15
REM_GRID_RESTART_DIIS = 0

NextCycle: DoReset = 1
   30    -472.8179357436      7.13E-06  00000
Ite = 31 IFIte = 0 Thresh = 1.00e-11
Finding J and K together
 Job number = 22, Threshold = 1.00E-11
Integral type ranges set in mkLRange.C for JobNum: 22  <1-21|1-21>
 MakeJK  time:  CPU       3.80 s  wall       3.81 s
Fock build time:  3.80 s (CPU) 3.81 s (wall)
DIIS Errors:  Max 5.73E-05 RMS 6.66E-06

Current DIIS subspace size = 2
REM_GRID_RESTART_DIIS = 0

   31    -472.8179362571      6.66E-06  00000
Ite = 32 IFIte = 1 Thresh = 1.00e-11
Using dP: JK
Finding J and K together
 ML is being used
 Job number = 22, Threshold = 1.00E-11
Integral type ranges set in mkLRange.C for JobNum: 22  <1-21|1-21>
 MakeJK  time:  CPU       3.78 s  wall       3.78 s
Fock build time:  3.78 s (CPU) 3.78 s (wall)
DIIS Errors:  Max 6.44E-05 RMS 7.22E-06

Current DIIS subspace size = 3
REM_GRID_RESTART_DIIS = 0

   32    -472.8179367274      7.22E-06  00000
Ite = 33 IFIte = 2 Thresh = 1.00e-11
Using dP: JK
Finding J and K together
 ML is being used
 Job number = 22, Threshold = 1.00E-11
Integral type ranges set in mkLRange.C for JobNum: 22  <1-21|1-21>
 MakeJK  time:  CPU       3.78 s  wall       3.79 s
Fock build time:  3.78 s (CPU) 3.79 s (wall)
DIIS Errors:  Max 6.37E-05 RMS 6.95E-06

Current DIIS subspace size = 4
REM_GRID_RESTART_DIIS = 0

   33    -472.8179379834      6.95E-06  00000
Ite = 34 IFIte = 3 Thresh = 1.00e-11
Using dP: JK
Finding J and K together
 ML is being used
 Job number = 22, Threshold = 1.00E-11
Integral type ranges set in mkLRange.C for JobNum: 22  <1-21|1-21>
 MakeJK  time:  CPU       3.80 s  wall       3.80 s
Fock build time:  3.80 s (CPU) 3.80 s (wall)
DIIS Errors:  Max 6.67E-05 RMS 6.94E-06

Current DIIS subspace size = 5
REM_GRID_RESTART_DIIS = 0

   34    -472.8179393458      6.94E-06  00000
Ite = 35 IFIte = 4 Thresh = 1.00e-11
Using dP: JK
Finding J and K together
 ML is being used
 Job number = 22, Threshold = 1.00E-11
Integral type ranges set in mkLRange.C for JobNum: 22  <1-21|1-21>
 MakeJK  time:  CPU       3.78 s  wall       3.79 s
Fock build time:  3.78 s (CPU) 3.79 s (wall)
DIIS Errors:  Max 6.63E-05 RMS 6.89E-06

Current DIIS subspace size = 6
REM_GRID_RESTART_DIIS = 0

   35    -472.8179404796      6.89E-06  00000
Ite = 36 IFIte = 5 Thresh = 1.00e-11
Using dP: JK
Finding J and K together
 ML is being used
 Job number = 22, Threshold = 1.00E-11
Integral type ranges set in mkLRange.C for JobNum: 22  <1-21|1-21>
 MakeJK  time:  CPU       3.78 s  wall       3.78 s
Fock build time:  3.78 s (CPU) 3.78 s (wall)
DIIS Errors:  Max 6.66E-05 RMS 6.89E-06

Current DIIS subspace size = 7
REM_GRID_RESTART_DIIS = 0

   36    -472.8179406732      6.89E-06  00000
Ite = 37 IFIte = 6 Thresh = 1.00e-11
Using dP: JK
Finding J and K together
 ML is being used
 Job number = 22, Threshold = 1.00E-11
Integral type ranges set in mkLRange.C for JobNum: 22  <1-21|1-21>
 MakeJK  time:  CPU       3.78 s  wall       3.78 s
Fock build time:  3.78 s (CPU) 3.78 s (wall)
DIIS Errors:  Max 6.65E-05 RMS 6.88E-06

Current DIIS subspace size = 8
REM_GRID_RESTART_DIIS = 0

   37    -472.8179404058      6.88E-06  00000
Ite = 38 IFIte = 7 Thresh = 1.00e-11
Using dP: JK
Finding J and K together
 ML is being used
 Job number = 22, Threshold = 1.00E-11
Integral type ranges set in mkLRange.C for JobNum: 22  <1-21|1-21>
 MakeJK  time:  CPU       3.79 s  wall       3.79 s
Fock build time:  3.79 s (CPU) 3.79 s (wall)
DIIS Errors:  Max 6.53E-05 RMS 6.86E-06

Current DIIS subspace size = 9
REM_GRID_RESTART_DIIS = 0

   38    -472.8179386342      6.86E-06  00000
Ite = 39 IFIte = 8 Thresh = 1.00e-11
Using dP: JK
Finding J and K together
 ML is being used
 Job number = 22, Threshold = 1.00E-11
Integral type ranges set in mkLRange.C for JobNum: 22  <1-21|1-21>
 MakeJK  time:  CPU       3.79 s  wall       3.79 s
Fock build time:  3.79 s (CPU) 3.79 s (wall)
DIIS Errors:  Max 6.27E-05 RMS 6.77E-06

Current DIIS subspace size = 10
REM_GRID_RESTART_DIIS = 0

NextCycle: DoReset = 1
   39    -472.8179352864      6.77E-06  00000
Ite = 40 IFIte = 9 Thresh = 1.00e-11
Using dP: JK
Finding J and K together
 ML is being used
 Job number = 22, Threshold = 1.00E-11
Integral type ranges set in mkLRange.C for JobNum: 22  <1-21|1-21>
 MakeJK  time:  CPU       3.77 s  wall       3.78 s
Fock build time:  3.77 s (CPU) 3.78 s (wall)
DIIS Errors:  Max 5.52E-05 RMS 6.35E-06

Current DIIS subspace size = 2
REM_GRID_RESTART_DIIS = 0

   40    -472.8179357347      6.35E-06  00000
Ite = 41 IFIte = 10 Thresh = 1.00e-11
Using dP: JK
Finding J and K together
 ML is being used
 Job number = 22, Threshold = 1.00E-11
Integral type ranges set in mkLRange.C for JobNum: 22  <1-21|1-21>
 MakeJK  time:  CPU       3.77 s  wall       3.77 s
Fock build time:  3.77 s (CPU) 3.77 s (wall)
DIIS Errors:  Max 6.37E-05 RMS 6.75E-06

Current DIIS subspace size = 3
REM_GRID_RESTART_DIIS = 0

   41    -472.8179360608      6.75E-06  00000
Ite = 42 IFIte = 11 Thresh = 1.00e-11
Using dP: JK
Finding J and K together
 ML is being used
 Job number = 22, Threshold = 1.00E-11
Integral type ranges set in mkLRange.C for JobNum: 22  <1-21|1-21>
 MakeJK  time:  CPU       3.82 s  wall       3.82 s
Fock build time:  3.82 s (CPU) 3.82 s (wall)
DIIS Errors:  Max 6.37E-05 RMS 6.71E-06

Current DIIS subspace size = 4
REM_GRID_RESTART_DIIS = 0

   42    -472.8179368778      6.71E-06  00000
Ite = 43 IFIte = 12 Thresh = 1.00e-11
Using dP: JK
Finding J and K together
 ML is being used
 Job number = 22, Threshold = 1.00E-11
Integral type ranges set in mkLRange.C for JobNum: 22  <1-21|1-21>
 MakeJK  time:  CPU       3.84 s  wall       3.84 s
Fock build time:  3.84 s (CPU) 3.84 s (wall)
DIIS Errors:  Max 6.44E-05 RMS 6.70E-06

Current DIIS subspace size = 5
REM_GRID_RESTART_DIIS = 0

   43    -472.8179373180      6.70E-06  00000
Ite = 44 IFIte = 13 Thresh = 1.00e-11
Using dP: JK
Finding J and K together
 ML is being used
 Job number = 22, Threshold = 1.00E-11
Integral type ranges set in mkLRange.C for JobNum: 22  <1-21|1-21>
 MakeJK  time:  CPU       3.74 s  wall       3.75 s
Fock build time:  3.74 s (CPU) 3.75 s (wall)
DIIS Errors:  Max 6.44E-05 RMS 6.70E-06

Current DIIS subspace size = 6
REM_GRID_RESTART_DIIS = 0

   44    -472.8179374257      6.70E-06  00000
Ite = 45 IFIte = 14 Thresh = 1.00e-11
Using dP: JK
Finding J and K together
 ML is being used
 Job number = 22, Threshold = 1.00E-11
Integral type ranges set in mkLRange.C for JobNum: 22  <1-21|1-21>
 MakeJK  time:  CPU       3.86 s  wall       3.86 s
Fock build time:  3.86 s (CPU) 3.86 s (wall)
DIIS Errors:  Max 6.35E-05 RMS 6.70E-06

Current DIIS subspace size = 7
REM_GRID_RESTART_DIIS = 0

NextCycle: DoReset = 1
   45    -472.8179364054      6.70E-06  00000
Ite = 46 IFIte = 0 Thresh = 1.00e-11
Finding J and K together
 Job number = 22, Threshold = 1.00E-11
Integral type ranges set in mkLRange.C for JobNum: 22  <1-21|1-21>
 MakeJK  time:  CPU       3.82 s  wall       3.83 s
Fock build time:  3.82 s (CPU) 3.83 s (wall)
DIIS Errors:  Max 5.67E-05 RMS 6.33E-06

Current DIIS subspace size = 2
REM_GRID_RESTART_DIIS = 0

   46    -472.8179368489      6.33E-06  00000
Ite = 47 IFIte = 1 Thresh = 1.00e-11
Using dP: JK
Finding J and K together
 ML is being used
 Job number = 22, Threshold = 1.00E-11
Integral type ranges set in mkLRange.C for JobNum: 22  <1-21|1-21>
 MakeJK  time:  CPU       3.77 s  wall       3.77 s
Fock build time:  3.77 s (CPU) 3.78 s (wall)
DIIS Errors:  Max 6.42E-05 RMS 6.68E-06

Current DIIS subspace size = 3
REM_GRID_RESTART_DIIS = 0

   47    -472.8179371637      6.68E-06  00000
Ite = 48 IFIte = 2 Thresh = 1.00e-11
Using dP: JK
Finding J and K together
 ML is being used
 Job number = 22, Threshold = 1.00E-11
Integral type ranges set in mkLRange.C for JobNum: 22  <1-21|1-21>
 MakeJK  time:  CPU       3.78 s  wall       3.78 s
Fock build time:  3.78 s (CPU) 3.78 s (wall)
DIIS Errors:  Max 6.42E-05 RMS 6.69E-06

Current DIIS subspace size = 4
REM_GRID_RESTART_DIIS = 0

   48    -472.8179367236      6.69E-06  00000
Ite = 49 IFIte = 3 Thresh = 1.00e-11
Using dP: JK
Finding J and K together
 ML is being used
 Job number = 22, Threshold = 1.00E-11
Integral type ranges set in mkLRange.C for JobNum: 22  <1-21|1-21>
 MakeJK  time:  CPU       3.78 s  wall       3.78 s
Fock build time:  3.78 s (CPU) 3.78 s (wall)
DIIS Errors:  Max 6.28E-05 RMS 6.69E-06

Current DIIS subspace size = 5
REM_GRID_RESTART_DIIS = 0

   49    -472.8179357692      6.69E-06  00000
Ite = 50 IFIte = 4 Thresh = 1.00e-11
Using dP: JK
Finding J and K together
 ML is being used
 Job number = 22, Threshold = 1.00E-11
Integral type ranges set in mkLRange.C for JobNum: 22  <1-21|1-21>
 MakeJK  time:  CPU       3.78 s  wall       3.79 s
Fock build time:  3.78 s (CPU) 3.79 s (wall)
DIIS Errors:  Max 6.16E-05 RMS 6.69E-06

Current DIIS subspace size = 6
REM_GRID_RESTART_DIIS = 0

   50    -472.8179333016      6.69E-06  00000    Convergence failure

 Q-Chem fatal error occurred in module /usr/local/qchem/scfman/scfman.C, line 5103:

 SCF failed to converge

 Sat May 19 18:51:25 2018

===================================================================================
=   BAD TERMINATION OF ONE OF YOUR APPLICATION PROCESSES
=   PID 16693 RUNNING AT qciep03
=   EXIT CODE: 6
=   CLEANING UP REMAINING PROCESSES
=   YOU CAN IGNORE THE BELOW CLEANUP MESSAGES
===================================================================================
YOUR APPLICATION TERMINATED WITH THE EXIT STRING: Aborted (signal 6)
This typically refers to a problem with your application.
Please see the FAQ page for debugging suggestions
