This is a multi-thread run using 8 threads
/usr/local/qchem/bin/parallel.csh,  , pt_lanl2dz.3.inp, 1, 0, /home/jcartus/scratch/qchem14569/
MPIRUN in parallel.csh is mpirun
P4_RSHCOMMAND in parallel.csh is ssh
QCOUTFILE is stdout
Q-Chem machineFile is /usr/local/qchem/bin/mpi/machines 
Process 0 of 1 is on qciep03 - thread support 0
initial socket setup ...start
initial socket setup ...done 
now start server 0 ... 
qciep03.tugraz.at 127.0.1
Q-Chem Developer Version! Running on 127.0.1.*
                  Welcome to Q-Chem
     A Quantum Leap Into The Future Of Chemistry


 Q-Chem 5.0, Q-Chem, Inc., Pleasanton, CA (2017)

 Yihan Shao,  Zhengting Gan,  E. Epifanovsky,  A. T. B. Gilbert,  M. Wormit,  
 J. Kussmann,  A. W. Lange,  A. Behn,  Jia Deng,  Xintian Feng,  D. Ghosh,  
 M. Goldey,  P. R. Horn,  L. D. Jacobson,  I. Kaliman,  T. Kus,  A. Landau,  
 Jie Liu,  E. I. Proynov,  R. M. Richard,  R. P. Steele,  E. J. Sundstrom,  
 H. L. Woodcock III,  P. M. Zimmerman,  D. Zuev,  B. Albrecht,  E. Alguire,  
 S. A. Baeppler,  D. Barton,  Z. Benda,  Y. A. Bernard,  E. J. Berquist,  
 K. B. Bravaya,  H. Burton,  D. Casanova,  Chun-Min Chang,  Yunqing Chen,  
 A. Chien,  K. D. Closser,  M. P. Coons,  S. Dasgupta,  A. L. Dempwolff,  
 M. Diedenhofen,  Hainam Do,  R. G. Edgar,  Po-Tung Fang,  S. Fatehi,  
 Qingguo Feng,  J. Fosso-Tande,  Qinghui Ge,  A. Ghysels,  G. Gidofalvi,  
 J. Gomes,  J. Gonthier,  A. Gunina,  M. W. D. Hanson-Heine,  
 P. H. P. Harbach,  A. W. Hauser,  J. E. Herr,  E. G. Hohenstein,  
 Z. C. Holden,  Kerwin Hui,  T.-C. Jagau,  Hyunjun Ji,  B. Kaduk,  
 K. Khistyaev,  Jaehoon Kim,  P. Klunzinger,  K. Koh,  D. Kosenkov,  
 L. Koulias,  T. Kowalczyk,  C. M. Krauter,  A. Kunitsa,  Ka Un Lao,  
 A. Laurent,  K. V. Lawler,  Joonho Lee,  D. Lefrancois,  S. Lehtola,  
 D. S. Levine,  Yi-Pei Li,  You-Sheng Lin,  Fenglai Liu,  E. Livshits,  
 A. Luenser,  P. Manohar,  E. Mansoor,  S. F. Manzer,  Shan-Ping Mao,  
 Yuezhi Mao,  N. Mardirossian,  A. V. Marenich,  T. Markovich,  
 L. A. Martinez-Martinez,  S. A. Maurer,  N. J. Mayhall,  S. C. McKenzie,  
 J.-M. Mewes,  A. F. Morrison,  J. W. Mullinax,  K. Nanda,  
 T. S. Nguyen-Beck,  R. Olivares-Amaya,  J. A. Parkhill,  T. M. Perrine,  
 F. Plasser,  S. Prager,  A. Prociuk,  E. Ramos,  D. R. Rehn,  F. Rob,  
 M. Schneider,  N. Sergueev,  S. M. Sharada,  S. Sharma,  D. W. Small,  
 T. Stauch,  T. Stein,  Yu-Chuan Su,  A. J. W. Thom,  A. Tkatchenko,  
 T. Tsuchimochi,  L. Vogt,  O. Vydrov,  M. A. Watson,  J. Wenzel,  
 M. de Wergifosse,  T. A. Wesolowski,  A. White,  J. Witte,  A. Yamada,  
 Jun Yang,  K. Yao,  S. Yeganeh,  S. R. Yost,  Zhi-Qiang You,  A. Zech,  
 Igor Ying Zhang,  Xing Zhang,  Yan Zhao,  Ying Zhu,  B. R. Brooks,  
 G. K. L. Chan,  C. J. Cramer,  M. S. Gordon,  W. J. Hehre,  A. Klamt,  
 M. W. Schmidt,  C. D. Sherrill,  D. G. Truhlar,  A. Aspuru-Guzik,  R. Baer,  
 A. T. Bell,  N. A. Besley,  Jeng-Da Chai,  R. A. DiStasio Jr.,  A. Dreuw,  
 B. D. Dunietz,  T. R. Furlani,  Chao-Ping Hsu,  Yousung Jung,  Jing Kong,  
 D. S. Lambrecht,  WanZhen Liang,  C. Ochsenfeld,  V. A. Rassolov,  
 L. V. Slipchenko,  J. E. Subotnik,  T. Van Voorhis,  J. M. Herbert,  
 A. I. Krylov,  P. M. W. Gill,  M. Head-Gordon

 Contributors to earlier versions of Q-Chem not listed above: 
 R. D. Adamson,  B. Austin,  J. Baker,  G. J. O. Beran,  K. Brandhorst,  
 S. T. Brown,  E. F. C. Byrd,  A. K. Chakraborty,  C.-L. Cheng,  
 Siu Hung Chien,  D. M. Chipman,  D. L. Crittenden,  H. Dachsel,  
 R. J. Doerksen,  A. D. Dutoi,  L. Fusti-Molnar,  W. A. Goddard III,  
 A. Golubeva-Zadorozhnaya,  S. R. Gwaltney,  G. Hawkins,  A. Heyden,  
 S. Hirata,  G. Kedziora,  F. J. Keil,  C. Kelley,  Jihan Kim,  R. A. King,  
 R. Z. Khaliullin,  P. P. Korambath,  W. Kurlancheek,  A. M. Lee,  M. S. Lee,  
 S. V. Levchenko,  Ching Yeh Lin,  D. Liotard,  R. C. Lochan,  I. Lotan,  
 P. E. Maslen,  N. Nair,  D. P. O'Neill,  D. Neuhauser,  E. Neuscamman,  
 C. M. Oana,  R. Olson,  B. Peters,  R. Peverati,  P. A. Pieniazek,  
 Y. M. Rhee,  J. Ritchie,  M. A. Rohrdanz,  E. Rosta,  N. J. Russ,  
 H. F. Schaefer III,  N. E. Schultz,  N. Shenvi,  A. C. Simmonett,  A. Sodt,  
 D. Stuck,  K. S. Thanthiriwatte,  V. Vanovschi,  Tao Wang,  A. Warshel,  
 C. F. Williams,  Q. Wu,  X. Xu,  W. Zhang

 Please cite Q-Chem as follows:
 Y. Shao et al., Mol. Phys. 113, 184-215 (2015)
 DOI: 10.1080/00268976.2014.952696

 Q-Chem 5.0.2 for Intel X86 EM64T Linux

 Parts of Q-Chem use Armadillo 5.200.1 (Boston Tea Smuggler).
 http://arma.sourceforge.net/

 Q-Chem begins on Tue May 22 09:13:02 2018  


Host: 0

     Scratch files written to /home/jcartus/scratch/qchem14569//
 Using version located at /usr/local/qchem/bin/qchem

 Parallel job on  1  processors
Symmetry disabled for AIMD jobs.

Total Memory Limit in MB = 2000
Mega-Array Size in MB = 192

Checking the input file for inconsistencies... 	...done.
Finally everything over in PARseQInput

--------------------------------------------------------------
User input:
--------------------------------------------------------------
$molecule
   0 1
   Pt     -1.7005895206     2.5405479739     0.3789908496
   Pt      0.2369903209     0.8034485009     0.3314850075
   Pt      0.6168354326     3.2209845390     0.1864621052
   Pt     -0.4094462330     1.9528189862    -2.0589979621
$end

$rem
   JOBTYPE              aimd
   AIMD_METHOD          bomd
   METHOD               hf
   BASIS                lanl2dz
   ECP                  lanl2dz
   TIME_STEP            20        (20 a.u. = 0.48 fs) 
   AIMD_STEPS           300
   AIMD_INIT_VELOC      thermal
   AIMD_TEMP            700
   MAX_SCF_CYCLES       100
   FOCK_EXTRAP_ORDER    6         
   FOCK_EXTRAP_POINTS   12
$end 
--------------------------------------------------------------
 ----------------------------------------------------------------
             Standard Nuclear Orientation (Angstroms)
    I     Atom           X                Y                Z
 ----------------------------------------------------------------
    1      Pt     -1.7005895206     2.5405479739     0.3789908496
    2      Pt      0.2369903209     0.8034485009     0.3314850075
    3      Pt      0.6168354326     3.2209845390     0.1864621052
    4      Pt     -0.4094462330     1.9528189862    -2.0589979621
 ----------------------------------------------------------------
 Nuclear Repulsion Energy =   391.9363038389 hartrees
 There are       36 alpha and       36 beta electrons
 Requested basis set is LANL2DZ
 Compound shells will be simplified
 There are 32 shells and 88 basis functions

 Total QAlloc Memory Limit   2000 MB
 Mega-Array Size       188 MB
 MEM_STATIC part       192 MB

finished with qalloc call

                       Distance Matrix (Angstroms)
             Pt(  1)   Pt(  2)   Pt(  3)
   Pt(  2)  2.602688
   Pt(  3)  2.422916  2.451488
   Pt(  4)  2.820685  2.730081  2.775534

 Job number = 2, Threshold = 1.00E-11
Integral type ranges set in mkLRange.C for JobNum: 2  <1-21|1-21>
Symmetry turned off temporarily
 Using the largest function pair in Schwarz integrals
Total number of integrals generated =           88908
Symmetry turned back on
 A cutoff of  1.0D-11 yielded    528 shell pairs
 There are      4032 function pairs (      4812 Cartesian)
 Requested basis set is LANL2DZ
 Compound shells will be simplified
 There are 32 shells and 88 basis functions
 Job number = 2, Threshold = 1.00E-11
Integral type ranges set in mkLRange.C for JobNum: 2  <1-21|1-21>
Symmetry turned off temporarily
Symmetry turned back on
 A cutoff of  1.0D-11 yielded    528 shell pairs
 There are      4032 function pairs (      4812 Cartesian)
Integral type ranges set in mkLRange.C for JobNum: 18  <1-21|22-39>

 Q-Chem warning in module /usr/local/qchem/libqints/libqints/qchem/aobasis.C, line 99:

 Using a reconstructed effective core potential

Integral type ranges set in mkLRange.C for JobNum: 18  <1-21|22-39>
 Job number = 11, Threshold = 1.00E-11
Integral type ranges set in mkLRange.C for JobNum: 11  <1-21|40-40>
Total number of integrals generated =           19248
 Smallest overlap matrix eigenvalue = 1.79E-03
 Multipole matrices computed through 2nd order

 Scale SEOQF with 1.000000e-01/1.000000e-01/1.000000e-01

 Standard Electronic Orientation quadrupole field applied
 Nucleus-field energy     =     0.0000000209 hartrees
 ENuRep (before)= 391.9363038389
 ENucField = 0.0000000209
 ENuRep (after) = 391.9363038597
 Guess from superposition of atomic densities
 Warning:  Energy on first SCF cycle will be non-variational
 SAD guess density has 72.000000 electrons

 ==================================================
    GEN_SCFMAN: A general SCF calculation manager  
                                                   
    Authors:                                       
        -- Eric Jon Sundstrom 2008-2014            
        -- Paul Horn 2010-2015                     
        -- Yuezhi Mao 2012-                        
        -- Dmitri Zuev 2014                        
        -- Alec White 2015-                        
        -- David Stuck 2015                        
        -- Shaama M.S. 2015                        
        -- Shane Yost 2015-                         
        -- Joonho Lee 2016-                        
        -- David Small 2016-                       
        -- Daniel Levine 2016-                     
        -- Susi Lehtola 2017-                      
        -- Hugh Burton 2017-                       
 ==================================================
 Hartree-Fock
Finding J and K together
 Job number = 22, Threshold = 1.00E-11
Integral type ranges set in mkLRange.C for JobNum: 22  <1-21|1-21>
 MakeJK  time:  CPU       2.12 s  wall       2.12 s
 A restricted SCF calculation will be
 performed using DIIS
 SCF converges when DIIS error is below 1.0e-08
 ---------------------------------------
  Cycle       Energy         DIIS error
 ---------------------------------------
Finding J and K together
 Job number = 22, Threshold = 1.00E-11
Integral type ranges set in mkLRange.C for JobNum: 22  <1-21|1-21>
 MakeJK  time:  CPU       4.16 s  wall       4.17 s
    1    -472.8941719283      3.85e-02  
Finding J and K together
 Job number = 22, Threshold = 1.00E-11
Integral type ranges set in mkLRange.C for JobNum: 22  <1-21|1-21>
 MakeJK  time:  CPU       3.98 s  wall       3.98 s
    2    -472.7803557921      6.21e-03  
Finding J and K together
 Job number = 22, Threshold = 1.00E-11
Integral type ranges set in mkLRange.C for JobNum: 22  <1-21|1-21>
 MakeJK  time:  CPU       4.02 s  wall       4.02 s
    3    -472.7877361017      7.24e-03  
Finding J and K together
 Job number = 22, Threshold = 1.00E-11
Integral type ranges set in mkLRange.C for JobNum: 22  <1-21|1-21>
 MakeJK  time:  CPU       4.02 s  wall       4.03 s
    4    -472.8469947628      8.61e-04  
Finding J and K together
 Job number = 22, Threshold = 1.00E-11
Integral type ranges set in mkLRange.C for JobNum: 22  <1-21|1-21>
 MakeJK  time:  CPU       3.98 s  wall       3.98 s
    5    -472.8504405213      4.97e-04  
Finding J and K together
 Job number = 22, Threshold = 1.00E-11
Integral type ranges set in mkLRange.C for JobNum: 22  <1-21|1-21>
 MakeJK  time:  CPU       3.98 s  wall       3.98 s
    6    -472.8513525628      3.12e-04  
Finding J and K together
 Job number = 22, Threshold = 1.00E-11
Integral type ranges set in mkLRange.C for JobNum: 22  <1-21|1-21>
 MakeJK  time:  CPU       3.98 s  wall       3.98 s
    7    -472.8517570878      1.55e-04  
Finding J and K together
 Job number = 22, Threshold = 1.00E-11
Integral type ranges set in mkLRange.C for JobNum: 22  <1-21|1-21>
 MakeJK  time:  CPU       3.98 s  wall       3.98 s
    8    -472.8519646357      8.67e-05  
Finding J and K together
 Job number = 22, Threshold = 1.00E-11
Integral type ranges set in mkLRange.C for JobNum: 22  <1-21|1-21>
 MakeJK  time:  CPU       3.97 s  wall       3.98 s
    9    -472.8520755442      5.10e-05  
Finding J and K together
 Job number = 22, Threshold = 1.00E-11
Integral type ranges set in mkLRange.C for JobNum: 22  <1-21|1-21>
 MakeJK  time:  CPU       3.98 s  wall       3.98 s
   10    -472.8521218181      3.22e-05  
Finding J and K together
 Job number = 22, Threshold = 1.00E-11
Integral type ranges set in mkLRange.C for JobNum: 22  <1-21|1-21>
 MakeJK  time:  CPU       3.98 s  wall       3.98 s
   11    -472.8521355496      2.72e-05  
Finding J and K together
 Job number = 22, Threshold = 1.00E-11
Integral type ranges set in mkLRange.C for JobNum: 22  <1-21|1-21>
 MakeJK  time:  CPU       4.15 s  wall       4.15 s
   12    -472.8521444222      1.44e-05  
Finding J and K together
 Job number = 22, Threshold = 1.00E-11
Integral type ranges set in mkLRange.C for JobNum: 22  <1-21|1-21>
 MakeJK  time:  CPU       4.13 s  wall       4.14 s
   13    -472.8521493229      9.33e-06  
Finding J and K together
 Job number = 22, Threshold = 1.00E-11
Integral type ranges set in mkLRange.C for JobNum: 22  <1-21|1-21>
 MakeJK  time:  CPU       4.02 s  wall       4.02 s
   14    -472.8521513875      5.71e-06  
Finding J and K together
 Job number = 22, Threshold = 1.00E-11
Integral type ranges set in mkLRange.C for JobNum: 22  <1-21|1-21>
 MakeJK  time:  CPU       4.05 s  wall       4.05 s
   15    -472.8521522141      3.39e-06  
Finding J and K together
 Job number = 22, Threshold = 1.00E-11
Integral type ranges set in mkLRange.C for JobNum: 22  <1-21|1-21>
 MakeJK  time:  CPU       4.27 s  wall       4.28 s
   16    -472.8521524773      2.29e-06  
Finding J and K together
 Job number = 22, Threshold = 1.00E-11
Integral type ranges set in mkLRange.C for JobNum: 22  <1-21|1-21>
 MakeJK  time:  CPU       4.09 s  wall       4.10 s
   17    -472.8521526093      1.71e-06  
Finding J and K together
 Job number = 22, Threshold = 1.00E-11
Integral type ranges set in mkLRange.C for JobNum: 22  <1-21|1-21>
 MakeJK  time:  CPU       4.04 s  wall       4.04 s
   18    -472.8521527086      1.16e-06  
Finding J and K together
 Job number = 22, Threshold = 1.00E-11
Integral type ranges set in mkLRange.C for JobNum: 22  <1-21|1-21>
 MakeJK  time:  CPU       4.00 s  wall       4.00 s
   19    -472.8521527735      5.53e-07  
Finding J and K together
 Job number = 22, Threshold = 1.00E-11
Integral type ranges set in mkLRange.C for JobNum: 22  <1-21|1-21>
 MakeJK  time:  CPU       4.00 s  wall       4.00 s
   20    -472.8521527834      3.00e-07  
Finding J and K together
 Job number = 22, Threshold = 1.00E-11
Integral type ranges set in mkLRange.C for JobNum: 22  <1-21|1-21>
 MakeJK  time:  CPU       4.02 s  wall       4.02 s
   21    -472.8521527854      1.89e-07  
Finding J and K together
 Job number = 22, Threshold = 1.00E-11
Integral type ranges set in mkLRange.C for JobNum: 22  <1-21|1-21>
 MakeJK  time:  CPU       4.00 s  wall       4.00 s
   22    -472.8521527860      1.36e-07  
Finding J and K together
 Job number = 22, Threshold = 1.00E-11
Integral type ranges set in mkLRange.C for JobNum: 22  <1-21|1-21>
 MakeJK  time:  CPU       3.98 s  wall       3.98 s
   23    -472.8521527865      8.21e-08  
Finding J and K together
 Job number = 22, Threshold = 1.00E-11
Integral type ranges set in mkLRange.C for JobNum: 22  <1-21|1-21>
 MakeJK  time:  CPU       3.98 s  wall       3.99 s
   24    -472.8521527866      4.93e-08  
Finding J and K together
 Job number = 22, Threshold = 1.00E-11
Integral type ranges set in mkLRange.C for JobNum: 22  <1-21|1-21>
 MakeJK  time:  CPU       3.98 s  wall       3.99 s
   25    -472.8521527866      3.38e-08  
Finding J and K together
 Job number = 22, Threshold = 1.00E-11
Integral type ranges set in mkLRange.C for JobNum: 22  <1-21|1-21>
 MakeJK  time:  CPU       3.98 s  wall       3.99 s
   26    -472.8521527867      2.21e-08  
Finding J and K together
 Job number = 22, Threshold = 1.00E-11
Integral type ranges set in mkLRange.C for JobNum: 22  <1-21|1-21>
 MakeJK  time:  CPU       3.98 s  wall       3.98 s
   27    -472.8521527867      1.24e-08  
   28    -472.8521527867      7.51e-09  Convergence criterion met
 ---------------------------------------
 SCF time:   CPU 111.17s  wall 111.00s 
 Total energy in the final basis set =     -472.8521527867
Wall  1 = 111
Clock 1 = 111.1784591675
 ==================================================
                  Done GEN_SCFMAN                  
 ==================================================

Symmetry turned off temporarily

 --------------------------------------------------------------

                    Orbital Energies (a.u.)
 --------------------------------------------------------------

 Alpha MOs
 -- Occupied --
 -4.431  -4.413  -4.406  -4.313  -2.523  -2.509  -2.489  -2.487
 -2.481  -2.477  -2.473  -2.471  -2.467  -2.397  -2.387  -2.386
 -0.526  -0.473  -0.433  -0.425  -0.409  -0.399  -0.395  -0.369
 -0.367  -0.365  -0.356  -0.342  -0.340  -0.337  -0.334  -0.287
 -0.286  -0.283  -0.256  -0.250
 -- Virtual --
 -0.001   0.001   0.013   0.014   0.051   0.073   0.075   0.077
  0.085   0.086   0.120   0.120   0.122   0.127   0.128   0.138
  0.205   0.234   0.235   0.243   0.266   0.272   0.403   0.409
  0.421   0.501   0.529   0.537   0.559   0.568   0.579   0.595
  0.652   0.653   0.659   0.671   0.674   0.725   0.739   0.768
  0.776   0.787   0.816   0.831   0.845   0.857   0.891   0.904
  4.192   4.600   5.180   6.862
 --------------------------------------------------------------

          Ground-State Mulliken Net Atomic Charges

     Atom                 Charge (a.u.)
  ----------------------------------------
      1 Pt                    0.007700
      2 Pt                   -0.014397
      3 Pt                    0.066960
      4 Pt                   -0.060263
  ----------------------------------------
  Sum of atomic charges =     0.000000

 -----------------------------------------------------------------
                    Cartesian Multipole Moments
 -----------------------------------------------------------------
    Charge (ESU x 10^10)
                -0.0000
    Dipole Moment (Debye)
         X       0.1942      Y       0.5277      Z       1.4534
       Tot       1.5584
    Quadrupole Moments (Debye-Ang)
        XX     -82.5218     XY       0.2493     YY     -80.2397
        XZ      -1.2427     YZ       2.4532     ZZ     -91.8779
    Octopole Moments (Debye-Ang^2)
       XXX      70.7245    XXY    -169.4294    XYY      34.1015
       YYY    -522.5763    XXZ      33.1469    XYZ      -3.7625
       YYZ      35.9044    XZZ      27.4429    YZZ    -196.8566
       ZZZ      67.4196
    Hexadecapole Moments (Debye-Ang^3)
      XXXX    -508.4156   XXXY     163.3572   XXYY    -519.2455
      XYYY     235.6112   YYYY   -2723.7131   XXXZ     -41.1985
      XXYZ      65.8608   XYYZ     -19.5523   YYYZ     184.8053
      XXZZ    -218.1095   XYZZ      62.1610   YYZZ    -633.0014
      XZZZ     -21.3050   YZZZ     125.6242   ZZZZ    -679.6691
 -----------------------------------------------------------------
drvman_main.C: 73: calling DrvMan  Calculating analytic gradient of the SCF energy
drvman.C : 218: Calculating analytic gradient of the SCF energy
drvman.C: 244: calling SCF_Grad for normal SCF gradient
 Job number = 111, Threshold = 1.00E-11
Integral type ranges set in mkLRange.C for JobNum: 11  <1-21|40-40>
Finding J and K together
 ML is being used
 Job number = 122, Threshold = 1.00E-11
Integral type ranges set in mkLRange.C for JobNum: 22  <1-21|1-21>
Total number of integrals generated =        11619975
 MakeJK  time:  CPU      10.15 s  wall      10.13 s
 Gradient of SCF Energy
            1           2           3           4
    1   0.0293342   0.0016978  -0.0366220   0.0055901
    2   0.0081704   0.0271226  -0.0371608   0.0018678
    3  -0.0037778  -0.0091305  -0.0054895   0.0183978
 Max gradient component =       3.716E-02
 RMS gradient           =       2.018E-02
drvman.C: 248: out of SCF_Grad for normal SCF gradient
 Gradient time:  CPU 26.60 s  wall 26.59 s
 ------------------------------------------------------------------------------
                     drvman        : Timing summary (seconds)
 ------------------------------------------------------------------------------
     job step          cpu (% of tot)      sys (% of tot)     wall (% of tot)
 ------------------------------------------------------------------------------
 ------------------------------------------------------------------------------
   Grand Totals     0.2660E+02          0.1200E-04          0.2659E+02
 ------------------------------------------------------------------------------
drvman_main.C: 77: out of DrvMan =======================================================
            AB INITIO MOLECULAR DYNAMICS
=======================================================
Created directory /home/jcartus/scratch/qchem14569/AIMD
AIMD will take 300 BOMD steps Velocity Verlet integration
Time step = 20.00000 a.u. ( = 0.48378 fs)
Total simulation time requested = 145.133 fs
Integral threshold = 10**(-11)
SCF convergence threshold = 10**(-8)
Generating viewable xyz trajectory,
 file (in Angstroms) at AIMD/View.xyz
Choosing nuclear velocities from Maxwell-Boltzmann
Velocities sampled from Maxwell-Boltzmann at T = 700.0 K
sqrt(kT/m) and (vx,vy,vz) for each atom:
  1   7.8977e-05   1.14e-04   5.34e-05  -2.64e-05 
  2   7.8977e-05   6.69e-05   3.35e-05  -4.92e-05 
  3   7.8977e-05  -7.62e-05  -1.19e-04  -4.43e-06 
  4   7.8977e-05   1.56e-04   1.49e-05   4.68e-05 
T(nuclear) = 0.01269630 a.u.
v(c.o.m.) = (  6.5341e-05,  -4.2488e-06,  -8.3123e-06)
T(c.o.m.) = 3.09666e-03 a.u.
kT/2 = 0.001108 a.u.
Tx   = 0.008491 a.u.
Ty   = 0.003259 a.u.
Tz   = 0.000946 a.u.
Mean velocities (a.u.):   6.5341e-05  -4.2488e-06  -8.3123e-06
Removing c.o.m. velocity
T(nuclear) = 0.00959965 a.u.
v(c.o.m.) = (  0.0000e+00,  -6.2478e-22,   0.0000e+00)
T(c.o.m.) = 2.77456e-37 a.u.
kT   = 0.002217 a.u. = 1.39 kcal/mol
Tx   = 0.005457 a.u. = 3.42 kcal/mol
Ty   = 0.003246 a.u. = 2.04 kcal/mol
Tz   = 0.000897 a.u. = 0.56 kcal/mol
Initial velocities in m/s
  1      1.0745e+02      1.2617e+02     -3.9652e+01 
  2      3.3912e+00      8.2664e+01     -8.9364e+01 
  3     -3.0965e+02     -2.5082e+02      8.4943e+00 
  4      1.9881e+02      4.1985e+01      1.2052e+02 
----------------------------------------------------------------------------
       Nuclear coordinates (Angst) and velocities (a.u.)
----------------------------------------------------------------------------
             x        y        z            v_x         v_y        v_z
----------------------------------------------------------------------------
1     Pt   -1.7006   2.5405   0.3790     4.9114e-05   5.7675e-05  -1.8125e-05
2     Pt    0.2370   0.8034   0.3315     1.5501e-06   3.7786e-05  -4.0849e-05
3     Pt    0.6168   3.2210   0.1865    -1.4154e-04  -1.1465e-04   3.8828e-06
4     Pt   -0.4094   1.9528  -2.0590     9.0876e-05   1.9191e-05   5.5091e-05
----------------------------------------------------------------------------
Write nuclear velocities every 1 time steps

TIME STEP #1 (t = 0.000 a.u. = 0.00000 fs)
--------------------------------------
 Instantaneous Temperature = 505.2 K
 ----------------------------------------------------------------
             Standard Nuclear Orientation (Angstroms)
    I     Atom           X                Y                Z
 ----------------------------------------------------------------
    1      Pt     -1.7000784510     2.5411559458     0.3788001461
    2      Pt      0.2370062212     0.8038403332     0.3310554029
    3      Pt      0.6153483339     3.2197821797     0.1865048333
    4      Pt     -0.4084861043     1.9530215413    -2.0584203821
 ----------------------------------------------------------------
 Nuclear Repulsion Energy =   392.1448645695 hartrees
 There are       36 alpha and       36 beta electrons

                       Distance Matrix (Angstroms)
             Pt(  1)   Pt(  2)   Pt(  3)
   Pt(  2)  2.602468
   Pt(  3)  2.420478  2.449656
   Pt(  4)  2.820311  2.728896  2.773555

 Applying Cartesian multipole field
    Component          Value
    ---------          -----
     (2,0,0)        1.00000E-11
     (0,2,0)        2.00000E-11
     (0,0,2)       -3.00000E-11
 Nucleus-field energy     =     0.0000000209 hartrees
 ENuRep (before)= 392.1448645695
 ENucField = 0.0000000209
 ENuRep (after) = 392.1448645904
 Job number = 2, Threshold = 1.00E-11
Integral type ranges set in mkLRange.C for JobNum: 2  <1-21|1-21>
Symmetry turned off temporarily
Symmetry turned back on
 Job number = 2, Threshold = 1.00E-11
Integral type ranges set in mkLRange.C for JobNum: 2  <1-21|1-21>
Symmetry turned off temporarily
Symmetry turned back on
Integral type ranges set in mkLRange.C for JobNum: 18  <1-21|22-39>
Integral type ranges set in mkLRange.C for JobNum: 18  <1-21|22-39>
 Job number = 11, Threshold = 1.00E-11
Integral type ranges set in mkLRange.C for JobNum: 11  <1-21|40-40>
 Smallest overlap matrix eigenvalue = 1.79E-03
 Multipole matrices computed through 2nd order
 Guess from superposition of atomic densities
 Warning:  Energy on first SCF cycle will be non-variational
 SAD guess density has 72.000000 electrons
 SCF convergence criterion is 10**(-8)
 A restricted Hartree-Fock SCF calculation will be
 performed using Pulay DIIS extrapolation
 SCF converges when DIIS error is below 1.0E-08
Using Integral Screening
Finding J and K together
 ML is being used
 Job number = 22, Threshold = 1.00E-11
Integral type ranges set in mkLRange.C for JobNum: 22  <1-21|1-21>
 MakeJK  time:  CPU       2.09 s  wall       2.09 s
Fock build time:  2.09 s (CPU) 2.09 s (wall)
DIIS Errors:  Max 3.88E-01 RMS 3.86E-02

Current DIIS subspace size = 1
REM_GRID_RESTART_DIIS = 0

 ---------------------------------------
  Cycle       Energy         DIIS Error
 ---------------------------------------
    1    -472.8984521956      3.86E-02  00000
Ite = 2 IFIte = 1 Thresh = 1.00e-11
Finding J and K together
 Job number = 22, Threshold = 1.00E-11
Integral type ranges set in mkLRange.C for JobNum: 22  <1-21|1-21>
 MakeJK  time:  CPU       3.98 s  wall       3.98 s
Fock build time:  3.98 s (CPU) 3.98 s (wall)
DIIS Errors:  Max 1.21E-01 RMS 6.21E-03

Current DIIS subspace size = 2
REM_GRID_RESTART_DIIS = 0

    2    -472.7801277920      6.21E-03  00000
Ite = 3 IFIte = 2 Thresh = 1.00e-11
Using dP: JK
Finding J and K together
 ML is being used
 Job number = 22, Threshold = 1.00E-11
Integral type ranges set in mkLRange.C for JobNum: 22  <1-21|1-21>
 MakeJK  time:  CPU       3.98 s  wall       3.99 s
Fock build time:  3.98 s (CPU) 3.99 s (wall)
DIIS Errors:  Max 1.55E-01 RMS 7.24E-03

Current DIIS subspace size = 3
REM_GRID_RESTART_DIIS = 0

    3    -472.7874606890      7.24E-03  00000
Ite = 4 IFIte = 3 Thresh = 1.00e-11
Using dP: JK
Finding J and K together
 ML is being used
 Job number = 22, Threshold = 1.00E-11
Integral type ranges set in mkLRange.C for JobNum: 22  <1-21|1-21>
 MakeJK  time:  CPU       3.98 s  wall       3.98 s
Fock build time:  3.98 s (CPU) 3.98 s (wall)
DIIS Errors:  Max 8.24E-03 RMS 8.61E-04

Current DIIS subspace size = 4
REM_GRID_RESTART_DIIS = 0

    4    -472.8467096903      8.61E-04  00000
Ite = 5 IFIte = 4 Thresh = 1.00e-11
Using dP: JK
Finding J and K together
 ML is being used
 Job number = 22, Threshold = 1.00E-11
Integral type ranges set in mkLRange.C for JobNum: 22  <1-21|1-21>
 MakeJK  time:  CPU       3.98 s  wall       3.99 s
Fock build time:  3.98 s (CPU) 3.99 s (wall)
DIIS Errors:  Max 5.57E-03 RMS 4.98E-04

Current DIIS subspace size = 5
REM_GRID_RESTART_DIIS = 0

    5    -472.8501497106      4.98E-04  00000
Ite = 6 IFIte = 5 Thresh = 1.00e-11
Using dP: JK
Finding J and K together
 ML is being used
 Job number = 22, Threshold = 1.00E-11
Integral type ranges set in mkLRange.C for JobNum: 22  <1-21|1-21>
 MakeJK  time:  CPU       3.98 s  wall       3.98 s
Fock build time:  3.98 s (CPU) 3.98 s (wall)
DIIS Errors:  Max 4.25E-03 RMS 3.12E-04

Current DIIS subspace size = 6
REM_GRID_RESTART_DIIS = 0

    6    -472.8510626705      3.12E-04  00000
Ite = 7 IFIte = 6 Thresh = 1.00e-11
Using dP: JK
Finding J and K together
 ML is being used
 Job number = 22, Threshold = 1.00E-11
Integral type ranges set in mkLRange.C for JobNum: 22  <1-21|1-21>
 MakeJK  time:  CPU       3.98 s  wall       3.98 s
Fock build time:  3.98 s (CPU) 3.98 s (wall)
DIIS Errors:  Max 1.97E-03 RMS 1.55E-04

Current DIIS subspace size = 7
REM_GRID_RESTART_DIIS = 0

    7    -472.8514676427      1.55E-04  00000
Ite = 8 IFIte = 7 Thresh = 1.00e-11
Using dP: JK
Finding J and K together
 ML is being used
 Job number = 22, Threshold = 1.00E-11
Integral type ranges set in mkLRange.C for JobNum: 22  <1-21|1-21>
 MakeJK  time:  CPU       3.97 s  wall       3.98 s
Fock build time:  3.97 s (CPU) 3.98 s (wall)
DIIS Errors:  Max 1.10E-03 RMS 8.68E-05

Current DIIS subspace size = 8
REM_GRID_RESTART_DIIS = 0

    8    -472.8516754947      8.68E-05  00000
Ite = 9 IFIte = 8 Thresh = 1.00e-11
Using dP: JK
Finding J and K together
 ML is being used
 Job number = 22, Threshold = 1.00E-11
Integral type ranges set in mkLRange.C for JobNum: 22  <1-21|1-21>
 MakeJK  time:  CPU       4.14 s  wall       4.14 s
Fock build time:  4.14 s (CPU) 4.14 s (wall)
DIIS Errors:  Max 7.79E-04 RMS 5.11E-05

Current DIIS subspace size = 9
REM_GRID_RESTART_DIIS = 0

    9    -472.8517868607      5.11E-05  00000
Ite = 10 IFIte = 9 Thresh = 1.00e-11
Using dP: JK
Finding J and K together
 ML is being used
 Job number = 22, Threshold = 1.00E-11
Integral type ranges set in mkLRange.C for JobNum: 22  <1-21|1-21>
 MakeJK  time:  CPU       3.97 s  wall       3.97 s
Fock build time:  3.97 s (CPU) 3.97 s (wall)
DIIS Errors:  Max 5.29E-04 RMS 3.24E-05

Current DIIS subspace size = 10
REM_GRID_RESTART_DIIS = 0

   10    -472.8518332945      3.24E-05  00000
Ite = 11 IFIte = 10 Thresh = 1.00e-11
Using dP: JK
Finding J and K together
 ML is being used
 Job number = 22, Threshold = 1.00E-11
Integral type ranges set in mkLRange.C for JobNum: 22  <1-21|1-21>
 MakeJK  time:  CPU       3.99 s  wall       3.99 s
Fock build time:  3.99 s (CPU) 3.99 s (wall)
DIIS Errors:  Max 3.94E-04 RMS 2.72E-05

Current DIIS subspace size = 11
REM_GRID_RESTART_DIIS = 0

   11    -472.8518470337      2.72E-05  00000
Ite = 12 IFIte = 11 Thresh = 1.00e-11
Using dP: JK
Finding J and K together
 ML is being used
 Job number = 22, Threshold = 1.00E-11
Integral type ranges set in mkLRange.C for JobNum: 22  <1-21|1-21>
 MakeJK  time:  CPU       4.24 s  wall       4.24 s
Fock build time:  4.24 s (CPU) 4.24 s (wall)
DIIS Errors:  Max 2.58E-04 RMS 1.44E-05

Current DIIS subspace size = 12
REM_GRID_RESTART_DIIS = 0

   12    -472.8518560184      1.44E-05  00000
Ite = 13 IFIte = 12 Thresh = 1.00e-11
Using dP: JK
Finding J and K together
 ML is being used
 Job number = 22, Threshold = 1.00E-11
Integral type ranges set in mkLRange.C for JobNum: 22  <1-21|1-21>
 MakeJK  time:  CPU       3.97 s  wall       3.97 s
Fock build time:  3.98 s (CPU) 3.98 s (wall)
DIIS Errors:  Max 1.47E-04 RMS 9.37E-06

Current DIIS subspace size = 13
REM_GRID_RESTART_DIIS = 0

   13    -472.8518609484      9.37E-06  00000
Ite = 14 IFIte = 13 Thresh = 1.00e-11
Using dP: JK
Finding J and K together
 ML is being used
 Job number = 22, Threshold = 1.00E-11
Integral type ranges set in mkLRange.C for JobNum: 22  <1-21|1-21>
 MakeJK  time:  CPU       3.97 s  wall       3.98 s
Fock build time:  3.97 s (CPU) 3.98 s (wall)
DIIS Errors:  Max 7.66E-05 RMS 5.74E-06

Current DIIS subspace size = 14
REM_GRID_RESTART_DIIS = 0

   14    -472.8518630319      5.74E-06  00000
Ite = 15 IFIte = 14 Thresh = 1.00e-11
Using dP: JK
Finding J and K together
 ML is being used
 Job number = 22, Threshold = 1.00E-11
Integral type ranges set in mkLRange.C for JobNum: 22  <1-21|1-21>
 MakeJK  time:  CPU       3.98 s  wall       3.98 s
Fock build time:  3.98 s (CPU) 3.98 s (wall)
DIIS Errors:  Max 3.79E-05 RMS 3.41E-06

Current DIIS subspace size = 15
REM_GRID_RESTART_DIIS = 0

   15    -472.8518638668      3.41E-06  00000
Ite = 16 IFIte = 0 Thresh = 1.00e-11
Finding J and K together
 Job number = 22, Threshold = 1.00E-11
Integral type ranges set in mkLRange.C for JobNum: 22  <1-21|1-21>
 MakeJK  time:  CPU       3.97 s  wall       3.97 s
Fock build time:  3.97 s (CPU) 3.98 s (wall)
DIIS Errors:  Max 3.24E-05 RMS 2.31E-06

Current DIIS subspace size = 15
REM_GRID_RESTART_DIIS = 0

   16    -472.8518641333      2.31E-06  00000
Ite = 17 IFIte = 1 Thresh = 1.00e-11
Using dP: JK
Finding J and K together
 ML is being used
 Job number = 22, Threshold = 1.00E-11
Integral type ranges set in mkLRange.C for JobNum: 22  <1-21|1-21>
 MakeJK  time:  CPU       3.96 s  wall       3.97 s
Fock build time:  3.96 s (CPU) 3.97 s (wall)
DIIS Errors:  Max 2.67E-05 RMS 1.72E-06

Current DIIS subspace size = 15
REM_GRID_RESTART_DIIS = 0

   17    -472.8518642681      1.72E-06  00000
Ite = 18 IFIte = 2 Thresh = 1.00e-11
Using dP: JK
Finding J and K together
 ML is being used
 Job number = 22, Threshold = 1.00E-11
Integral type ranges set in mkLRange.C for JobNum: 22  <1-21|1-21>
 MakeJK  time:  CPU       3.97 s  wall       3.97 s
Fock build time:  3.97 s (CPU) 3.97 s (wall)
DIIS Errors:  Max 1.89E-05 RMS 1.16E-06

Current DIIS subspace size = 15
REM_GRID_RESTART_DIIS = 0

   18    -472.8518643699      1.16E-06  00000
Ite = 19 IFIte = 3 Thresh = 1.00e-11
Using dP: JK
Finding J and K together
 ML is being used
 Job number = 22, Threshold = 1.00E-11
Integral type ranges set in mkLRange.C for JobNum: 22  <1-21|1-21>
 MakeJK  time:  CPU       3.97 s  wall       3.97 s
Fock build time:  3.97 s (CPU) 3.97 s (wall)
DIIS Errors:  Max 8.37E-06 RMS 5.52E-07

Current DIIS subspace size = 15
REM_GRID_RESTART_DIIS = 0

   19    -472.8518644351      5.52E-07  00000
Ite = 20 IFIte = 4 Thresh = 1.00e-11
Using dP: JK
Finding J and K together
 ML is being used
 Job number = 22, Threshold = 1.00E-11
Integral type ranges set in mkLRange.C for JobNum: 22  <1-21|1-21>
 MakeJK  time:  CPU       3.97 s  wall       3.97 s
Fock build time:  3.97 s (CPU) 3.97 s (wall)
DIIS Errors:  Max 4.08E-06 RMS 3.00E-07

Current DIIS subspace size = 15
REM_GRID_RESTART_DIIS = 0

   20    -472.8518644448      3.00E-07  00000
Ite = 21 IFIte = 5 Thresh = 1.00e-11
Using dP: JK
Finding J and K together
 ML is being used
 Job number = 22, Threshold = 1.00E-11
Integral type ranges set in mkLRange.C for JobNum: 22  <1-21|1-21>
 MakeJK  time:  CPU       3.96 s  wall       3.96 s
Fock build time:  3.96 s (CPU) 3.96 s (wall)
DIIS Errors:  Max 2.52E-06 RMS 1.89E-07

Current DIIS subspace size = 15
REM_GRID_RESTART_DIIS = 0

   21    -472.8518644469      1.89E-07  00000
Ite = 22 IFIte = 6 Thresh = 1.00e-11
Using dP: JK
Finding J and K together
 ML is being used
 Job number = 22, Threshold = 1.00E-11
Integral type ranges set in mkLRange.C for JobNum: 22  <1-21|1-21>
 MakeJK  time:  CPU       3.94 s  wall       3.95 s
Fock build time:  3.94 s (CPU) 3.95 s (wall)
DIIS Errors:  Max 1.83E-06 RMS 1.37E-07

Current DIIS subspace size = 15
REM_GRID_RESTART_DIIS = 0

   22    -472.8518644476      1.37E-07  00000
Ite = 23 IFIte = 7 Thresh = 1.00e-11
Using dP: JK
Finding J and K together
 ML is being used
 Job number = 22, Threshold = 1.00E-11
Integral type ranges set in mkLRange.C for JobNum: 22  <1-21|1-21>
 MakeJK  time:  CPU       3.96 s  wall       3.96 s
Fock build time:  3.96 s (CPU) 3.96 s (wall)
DIIS Errors:  Max 1.06E-06 RMS 8.25E-08

Current DIIS subspace size = 15
REM_GRID_RESTART_DIIS = 0

   23    -472.8518644481      8.25E-08  00000
Ite = 24 IFIte = 8 Thresh = 1.00e-11
Using dP: JK
Finding J and K together
 ML is being used
 Job number = 22, Threshold = 1.00E-11
Integral type ranges set in mkLRange.C for JobNum: 22  <1-21|1-21>
 MakeJK  time:  CPU       4.08 s  wall       4.08 s
Fock build time:  4.08 s (CPU) 4.08 s (wall)
DIIS Errors:  Max 6.45E-07 RMS 4.97E-08

Current DIIS subspace size = 15
REM_GRID_RESTART_DIIS = 0

   24    -472.8518644484      4.97E-08  00000
Ite = 25 IFIte = 9 Thresh = 1.00e-11
Using dP: JK
Finding J and K together
 ML is being used
 Job number = 22, Threshold = 1.00E-11
Integral type ranges set in mkLRange.C for JobNum: 22  <1-21|1-21>
 MakeJK  time:  CPU       3.90 s  wall       3.90 s
Fock build time:  3.90 s (CPU) 3.90 s (wall)
DIIS Errors:  Max 4.36E-07 RMS 3.40E-08

Current DIIS subspace size = 15
REM_GRID_RESTART_DIIS = 0

   25    -472.8518644485      3.40E-08  00000
Ite = 26 IFIte = 10 Thresh = 1.00e-11
Using dP: JK
Finding J and K together
 ML is being used
 Job number = 22, Threshold = 1.00E-11
Integral type ranges set in mkLRange.C for JobNum: 22  <1-21|1-21>
 MakeJK  time:  CPU       3.90 s  wall       3.90 s
Fock build time:  3.90 s (CPU) 3.90 s (wall)
DIIS Errors:  Max 2.49E-07 RMS 2.23E-08

Current DIIS subspace size = 15
REM_GRID_RESTART_DIIS = 0

   26    -472.8518644484      2.23E-08  00000
Ite = 27 IFIte = 11 Thresh = 1.00e-11
Using dP: JK
Finding J and K together
 ML is being used
 Job number = 22, Threshold = 1.00E-11
Integral type ranges set in mkLRange.C for JobNum: 22  <1-21|1-21>
 MakeJK  time:  CPU       4.01 s  wall       4.02 s
Fock build time:  4.01 s (CPU) 4.02 s (wall)
DIIS Errors:  Max 1.46E-07 RMS 1.24E-08

Current DIIS subspace size = 15
REM_GRID_RESTART_DIIS = 0

   27    -472.8518644483      1.24E-08  00000
Ite = 28 IFIte = 12 Thresh = 1.00e-11
Using dP: JK
Finding J and K together
 ML is being used
 Job number = 22, Threshold = 1.00E-11
Integral type ranges set in mkLRange.C for JobNum: 22  <1-21|1-21>
 MakeJK  time:  CPU       3.86 s  wall       3.87 s
Fock build time:  3.86 s (CPU) 3.87 s (wall)
DIIS Errors:  Max 7.69E-08 RMS 7.51E-09

Current DIIS subspace size = 15
REM_GRID_RESTART_DIIS = 0

   28    -472.8518644482      7.51E-09  00000 Convergence criterion met
 ---------------------------------------
 SCF time:  CPU 110.03 s  wall 110.12 s
 SCF   energy in the final basis set = -472.85186445
 Total energy in the final basis set = -472.85186445
drvman_main.C: 73: calling DrvMan  Calculating analytic gradient of the SCF energy
drvman.C : 218: Calculating analytic gradient of the SCF energy
drvman.C: 244: calling SCF_Grad for normal SCF gradient
 Job number = 111, Threshold = 1.00E-11
Integral type ranges set in mkLRange.C for JobNum: 11  <1-21|40-40>
Finding J and K together
 ML is being used
 Job number = 122, Threshold = 1.00E-11
Integral type ranges set in mkLRange.C for JobNum: 22  <1-21|1-21>
 MakeJK  time:  CPU      10.32 s  wall      10.30 s
 Gradient of SCF Energy
            1           2           3           4
    1   0.0303335   0.0016768  -0.0376907   0.0056804
    2   0.0083343   0.0279547  -0.0382014   0.0019123
    3  -0.0038582  -0.0092648  -0.0055475   0.0186705
 Max gradient component =       3.820E-02
 RMS gradient           =       2.076E-02
drvman.C: 248: out of SCF_Grad for normal SCF gradient
 Gradient time:  CPU 26.54 s  wall 26.53 s
 ------------------------------------------------------------------------------
                     drvman        : Timing summary (seconds)
 ------------------------------------------------------------------------------
     job step          cpu (% of tot)      sys (% of tot)     wall (% of tot)
 ------------------------------------------------------------------------------
 ------------------------------------------------------------------------------
   Grand Totals     0.2654E+02          0.1400E-04          0.2653E+02
 ------------------------------------------------------------------------------
drvman_main.C: 77: out of DrvMan  Time for this dynamics step: 138.7 s (CPU) 138.8 s (wall)

TIME STEP #2 (t = 20.000 a.u. = 0.48378 fs)
--------------------------------------
 Instantaneous Temperature = 490.0 K
 ----------------------------------------------------------------
             Standard Nuclear Orientation (Angstroms)
    I     Atom           X                Y                Z
 ----------------------------------------------------------------
    1      Pt     -1.6995854475     2.5417589538     0.3786117404
    2      Pt      0.2370211229     0.8042155161     0.3306313163
    3      Pt      0.6138836833     3.2186025726     0.1865508654
    4      Pt     -0.4075293587     1.9532229575    -2.0578539219
 ----------------------------------------------------------------
 Nuclear Repulsion Energy =   392.3489601408 hartrees
 There are       36 alpha and       36 beta electrons

                       Distance Matrix (Angstroms)
             Pt(  1)   Pt(  2)   Pt(  3)
   Pt(  2)  2.602269
   Pt(  3)  2.418087  2.447866
   Pt(  4)  2.819955  2.727733  2.771610

 Applying Cartesian multipole field
    Component          Value
    ---------          -----
     (2,0,0)        1.00000E-11
     (0,2,0)        2.00000E-11
     (0,0,2)       -3.00000E-11
 Nucleus-field energy     =     0.0000000209 hartrees
 ENuRep (before)= 392.3489601408
 ENucField = 0.0000000209
 ENuRep (after) = 392.3489601617
 Job number = 2, Threshold = 1.00E-11
Integral type ranges set in mkLRange.C for JobNum: 2  <1-21|1-21>
Symmetry turned off temporarily
Symmetry turned back on
 Job number = 2, Threshold = 1.00E-11
Integral type ranges set in mkLRange.C for JobNum: 2  <1-21|1-21>
Symmetry turned off temporarily
Symmetry turned back on
Integral type ranges set in mkLRange.C for JobNum: 18  <1-21|22-39>
Integral type ranges set in mkLRange.C for JobNum: 18  <1-21|22-39>
 Job number = 11, Threshold = 1.00E-11
Integral type ranges set in mkLRange.C for JobNum: 11  <1-21|40-40>
 Smallest overlap matrix eigenvalue = 1.78E-03
 Multipole matrices computed through 2nd order
 Guess from superposition of atomic densities
 Warning:  Energy on first SCF cycle will be non-variational
 SAD guess density has 72.000000 electrons
 SCF convergence criterion is 10**(-8)
 A restricted Hartree-Fock SCF calculation will be
 performed using Pulay DIIS extrapolation
 SCF converges when DIIS error is below 1.0E-08
Using Integral Screening
Finding J and K together
 ML is being used
 Job number = 22, Threshold = 1.00E-11
Integral type ranges set in mkLRange.C for JobNum: 22  <1-21|1-21>
 MakeJK  time:  CPU       2.09 s  wall       2.09 s
Fock build time:  2.09 s (CPU) 2.09 s (wall)
DIIS Errors:  Max 3.89E-01 RMS 3.87E-02

Current DIIS subspace size = 1
REM_GRID_RESTART_DIIS = 0

 ---------------------------------------
  Cycle       Energy         DIIS Error
 ---------------------------------------
    1    -472.9026549054      3.87E-02  00000
Ite = 2 IFIte = 1 Thresh = 1.00e-11
Finding J and K together
 Job number = 22, Threshold = 1.00E-11
Integral type ranges set in mkLRange.C for JobNum: 22  <1-21|1-21>
 MakeJK  time:  CPU       4.00 s  wall       4.00 s
Fock build time:  4.00 s (CPU) 4.00 s (wall)
DIIS Errors:  Max 1.21E-01 RMS 6.20E-03

Current DIIS subspace size = 2
REM_GRID_RESTART_DIIS = 0

    2    -472.7798970870      6.20E-03  00000
Ite = 3 IFIte = 2 Thresh = 1.00e-11
Using dP: JK
Finding J and K together
 ML is being used
 Job number = 22, Threshold = 1.00E-11
Integral type ranges set in mkLRange.C for JobNum: 22  <1-21|1-21>
 MakeJK  time:  CPU       4.00 s  wall       4.00 s
Fock build time:  4.00 s (CPU) 4.00 s (wall)
DIIS Errors:  Max 1.55E-01 RMS 7.24E-03

Current DIIS subspace size = 3
REM_GRID_RESTART_DIIS = 0

    3    -472.7871839419      7.24E-03  00000
Ite = 4 IFIte = 3 Thresh = 1.00e-11
Using dP: JK
Finding J and K together
 ML is being used
 Job number = 22, Threshold = 1.00E-11
Integral type ranges set in mkLRange.C for JobNum: 22  <1-21|1-21>
 MakeJK  time:  CPU       4.04 s  wall       4.04 s
Fock build time:  4.04 s (CPU) 4.04 s (wall)
DIIS Errors:  Max 8.25E-03 RMS 8.61E-04

Current DIIS subspace size = 4
REM_GRID_RESTART_DIIS = 0

    4    -472.8464227411      8.61E-04  00000
Ite = 5 IFIte = 4 Thresh = 1.00e-11
Using dP: JK
Finding J and K together
 ML is being used
 Job number = 22, Threshold = 1.00E-11
Integral type ranges set in mkLRange.C for JobNum: 22  <1-21|1-21>
 MakeJK  time:  CPU       4.03 s  wall       4.03 s
Fock build time:  4.03 s (CPU) 4.03 s (wall)
DIIS Errors:  Max 5.57E-03 RMS 4.99E-04

Current DIIS subspace size = 5
REM_GRID_RESTART_DIIS = 0

    5    -472.8498571351      4.99E-04  00000
Ite = 6 IFIte = 5 Thresh = 1.00e-11
Using dP: JK
Finding J and K together
 ML is being used
 Job number = 22, Threshold = 1.00E-11
Integral type ranges set in mkLRange.C for JobNum: 22  <1-21|1-21>
 MakeJK  time:  CPU       3.98 s  wall       3.98 s
Fock build time:  3.98 s (CPU) 3.98 s (wall)
DIIS Errors:  Max 4.25E-03 RMS 3.12E-04

Current DIIS subspace size = 6
REM_GRID_RESTART_DIIS = 0

    6    -472.8507710063      3.12E-04  00000
Ite = 7 IFIte = 6 Thresh = 1.00e-11
Using dP: JK
Finding J and K together
 ML is being used
 Job number = 22, Threshold = 1.00E-11
Integral type ranges set in mkLRange.C for JobNum: 22  <1-21|1-21>
 MakeJK  time:  CPU       4.10 s  wall       4.10 s
Fock build time:  4.10 s (CPU) 4.10 s (wall)
DIIS Errors:  Max 1.96E-03 RMS 1.55E-04

Current DIIS subspace size = 7
REM_GRID_RESTART_DIIS = 0

    7    -472.8511764068      1.55E-04  00000
Ite = 8 IFIte = 7 Thresh = 1.00e-11
Using dP: JK
Finding J and K together
 ML is being used
 Job number = 22, Threshold = 1.00E-11
Integral type ranges set in mkLRange.C for JobNum: 22  <1-21|1-21>
 MakeJK  time:  CPU       4.00 s  wall       4.00 s
Fock build time:  4.00 s (CPU) 4.00 s (wall)
DIIS Errors:  Max 1.10E-03 RMS 8.69E-05

Current DIIS subspace size = 8
REM_GRID_RESTART_DIIS = 0

    8    -472.8513845558      8.69E-05  00000
Ite = 9 IFIte = 8 Thresh = 1.00e-11
Using dP: JK
Finding J and K together
 ML is being used
 Job number = 22, Threshold = 1.00E-11
Integral type ranges set in mkLRange.C for JobNum: 22  <1-21|1-21>
 MakeJK  time:  CPU       3.97 s  wall       3.98 s
Fock build time:  3.97 s (CPU) 3.98 s (wall)
DIIS Errors:  Max 7.82E-04 RMS 5.12E-05

Current DIIS subspace size = 9
REM_GRID_RESTART_DIIS = 0

    9    -472.8514963742      5.12E-05  00000
Ite = 10 IFIte = 9 Thresh = 1.00e-11
Using dP: JK
Finding J and K together
 ML is being used
 Job number = 22, Threshold = 1.00E-11
Integral type ranges set in mkLRange.C for JobNum: 22  <1-21|1-21>
 MakeJK  time:  CPU       3.97 s  wall       3.98 s
Fock build time:  3.97 s (CPU) 3.98 s (wall)
DIIS Errors:  Max 5.31E-04 RMS 3.25E-05

Current DIIS subspace size = 10
REM_GRID_RESTART_DIIS = 0

   10    -472.8515429633      3.25E-05  00000
Ite = 11 IFIte = 10 Thresh = 1.00e-11
Using dP: JK
Finding J and K together
 ML is being used
 Job number = 22, Threshold = 1.00E-11
Integral type ranges set in mkLRange.C for JobNum: 22  <1-21|1-21>
 MakeJK  time:  CPU       3.97 s  wall       3.98 s
Fock build time:  3.97 s (CPU) 3.98 s (wall)
DIIS Errors:  Max 3.96E-04 RMS 2.73E-05

Current DIIS subspace size = 11
REM_GRID_RESTART_DIIS = 0

   11    -472.8515567137      2.73E-05  00000
Ite = 12 IFIte = 11 Thresh = 1.00e-11
Using dP: JK
Finding J and K together
 ML is being used
 Job number = 22, Threshold = 1.00E-11
Integral type ranges set in mkLRange.C for JobNum: 22  <1-21|1-21>
 MakeJK  time:  CPU       3.97 s  wall       3.97 s
Fock build time:  3.97 s (CPU) 3.97 s (wall)
DIIS Errors:  Max 2.58E-04 RMS 1.45E-05

Current DIIS subspace size = 12
REM_GRID_RESTART_DIIS = 0

   12    -472.8515658080      1.45E-05  00000
Ite = 13 IFIte = 12 Thresh = 1.00e-11
Using dP: JK
Finding J and K together
 ML is being used
 Job number = 22, Threshold = 1.00E-11
Integral type ranges set in mkLRange.C for JobNum: 22  <1-21|1-21>
 MakeJK  time:  CPU       3.97 s  wall       3.97 s
Fock build time:  3.97 s (CPU) 3.97 s (wall)
DIIS Errors:  Max 1.48E-04 RMS 9.40E-06

Current DIIS subspace size = 13
REM_GRID_RESTART_DIIS = 0

   13    -472.8515707676      9.40E-06  00000
Ite = 14 IFIte = 13 Thresh = 1.00e-11
Using dP: JK
Finding J and K together
 ML is being used
 Job number = 22, Threshold = 1.00E-11
Integral type ranges set in mkLRange.C for JobNum: 22  <1-21|1-21>
 MakeJK  time:  CPU       3.97 s  wall       3.97 s
Fock build time:  3.97 s (CPU) 3.97 s (wall)
DIIS Errors:  Max 7.67E-05 RMS 5.77E-06

Current DIIS subspace size = 14
REM_GRID_RESTART_DIIS = 0

   14    -472.8515728702      5.77E-06  00000
Ite = 15 IFIte = 14 Thresh = 1.00e-11
Using dP: JK
Finding J and K together
 ML is being used
 Job number = 22, Threshold = 1.00E-11
Integral type ranges set in mkLRange.C for JobNum: 22  <1-21|1-21>
 MakeJK  time:  CPU       3.97 s  wall       3.97 s
Fock build time:  3.97 s (CPU) 3.97 s (wall)
DIIS Errors:  Max 3.82E-05 RMS 3.43E-06

Current DIIS subspace size = 15
REM_GRID_RESTART_DIIS = 0

   15    -472.8515737135      3.43E-06  00000
Ite = 16 IFIte = 0 Thresh = 1.00e-11
Finding J and K together
 Job number = 22, Threshold = 1.00E-11
Integral type ranges set in mkLRange.C for JobNum: 22  <1-21|1-21>
 MakeJK  time:  CPU       3.97 s  wall       3.97 s
Fock build time:  3.97 s (CPU) 3.97 s (wall)
DIIS Errors:  Max 3.26E-05 RMS 2.33E-06

Current DIIS subspace size = 15
REM_GRID_RESTART_DIIS = 0

   16    -472.8515739835      2.33E-06  00000
Ite = 17 IFIte = 1 Thresh = 1.00e-11
Using dP: JK
Finding J and K together
 ML is being used
 Job number = 22, Threshold = 1.00E-11
Integral type ranges set in mkLRange.C for JobNum: 22  <1-21|1-21>
 MakeJK  time:  CPU       3.98 s  wall       3.98 s
Fock build time:  3.98 s (CPU) 3.98 s (wall)
DIIS Errors:  Max 2.69E-05 RMS 1.74E-06

Current DIIS subspace size = 15
REM_GRID_RESTART_DIIS = 0

   17    -472.8515741211      1.74E-06  00000
Ite = 18 IFIte = 2 Thresh = 1.00e-11
Using dP: JK
Finding J and K together
 ML is being used
 Job number = 22, Threshold = 1.00E-11
Integral type ranges set in mkLRange.C for JobNum: 22  <1-21|1-21>
 MakeJK  time:  CPU       3.97 s  wall       3.97 s
Fock build time:  3.97 s (CPU) 3.97 s (wall)
DIIS Errors:  Max 1.89E-05 RMS 1.17E-06

Current DIIS subspace size = 15
REM_GRID_RESTART_DIIS = 0

   18    -472.8515742252      1.17E-06  00000
Ite = 19 IFIte = 3 Thresh = 1.00e-11
Using dP: JK
Finding J and K together
 ML is being used
 Job number = 22, Threshold = 1.00E-11
Integral type ranges set in mkLRange.C for JobNum: 22  <1-21|1-21>
 MakeJK  time:  CPU       4.03 s  wall       4.03 s
Fock build time:  4.03 s (CPU) 4.03 s (wall)
DIIS Errors:  Max 8.37E-06 RMS 5.50E-07

Current DIIS subspace size = 15
REM_GRID_RESTART_DIIS = 0

   19    -472.8515742908      5.50E-07  00000
Ite = 20 IFIte = 4 Thresh = 1.00e-11
Using dP: JK
Finding J and K together
 ML is being used
 Job number = 22, Threshold = 1.00E-11
Integral type ranges set in mkLRange.C for JobNum: 22  <1-21|1-21>
 MakeJK  time:  CPU       4.01 s  wall       4.02 s
Fock build time:  4.01 s (CPU) 4.02 s (wall)
DIIS Errors:  Max 4.09E-06 RMS 3.00E-07

Current DIIS subspace size = 15
REM_GRID_RESTART_DIIS = 0

   20    -472.8515743004      3.00E-07  00000
Ite = 21 IFIte = 5 Thresh = 1.00e-11
Using dP: JK
Finding J and K together
 ML is being used
 Job number = 22, Threshold = 1.00E-11
Integral type ranges set in mkLRange.C for JobNum: 22  <1-21|1-21>
 MakeJK  time:  CPU       3.95 s  wall       3.96 s
Fock build time:  3.96 s (CPU) 3.96 s (wall)
DIIS Errors:  Max 2.53E-06 RMS 1.90E-07

Current DIIS subspace size = 15
REM_GRID_RESTART_DIIS = 0

   21    -472.8515743024      1.90E-07  00000
Ite = 22 IFIte = 6 Thresh = 1.00e-11
Using dP: JK
Finding J and K together
 ML is being used
 Job number = 22, Threshold = 1.00E-11
Integral type ranges set in mkLRange.C for JobNum: 22  <1-21|1-21>
 MakeJK  time:  CPU       4.07 s  wall       4.07 s
Fock build time:  4.07 s (CPU) 4.08 s (wall)
DIIS Errors:  Max 1.83E-06 RMS 1.37E-07

Current DIIS subspace size = 15
REM_GRID_RESTART_DIIS = 0

   22    -472.8515743032      1.37E-07  00000
Ite = 23 IFIte = 7 Thresh = 1.00e-11
Using dP: JK
Finding J and K together
 ML is being used
 Job number = 22, Threshold = 1.00E-11
Integral type ranges set in mkLRange.C for JobNum: 22  <1-21|1-21>
 MakeJK  time:  CPU       3.97 s  wall       3.97 s
Fock build time:  3.97 s (CPU) 3.97 s (wall)
DIIS Errors:  Max 1.07E-06 RMS 8.30E-08

Current DIIS subspace size = 15
REM_GRID_RESTART_DIIS = 0

   23    -472.8515743037      8.30E-08  00000
Ite = 24 IFIte = 8 Thresh = 1.00e-11
Using dP: JK
Finding J and K together
 ML is being used
 Job number = 22, Threshold = 1.00E-11
Integral type ranges set in mkLRange.C for JobNum: 22  <1-21|1-21>
 MakeJK  time:  CPU       3.93 s  wall       3.93 s
Fock build time:  3.93 s (CPU) 3.93 s (wall)
DIIS Errors:  Max 6.48E-07 RMS 5.01E-08

Current DIIS subspace size = 15
REM_GRID_RESTART_DIIS = 0

   24    -472.8515743040      5.01E-08  00000
Ite = 25 IFIte = 9 Thresh = 1.00e-11
Using dP: JK
Finding J and K together
 ML is being used
 Job number = 22, Threshold = 1.00E-11
Integral type ranges set in mkLRange.C for JobNum: 22  <1-21|1-21>
 MakeJK  time:  CPU       3.89 s  wall       3.90 s
Fock build time:  3.89 s (CPU) 3.90 s (wall)
DIIS Errors:  Max 4.36E-07 RMS 3.42E-08

Current DIIS subspace size = 15
REM_GRID_RESTART_DIIS = 0

   25    -472.8515743040      3.42E-08  00000
Ite = 26 IFIte = 10 Thresh = 1.00e-11
Using dP: JK
Finding J and K together
 ML is being used
 Job number = 22, Threshold = 1.00E-11
Integral type ranges set in mkLRange.C for JobNum: 22  <1-21|1-21>
 MakeJK  time:  CPU       3.89 s  wall       3.90 s
Fock build time:  3.89 s (CPU) 3.90 s (wall)
DIIS Errors:  Max 2.48E-07 RMS 2.24E-08

Current DIIS subspace size = 15
REM_GRID_RESTART_DIIS = 0

   26    -472.8515743039      2.24E-08  00000
Ite = 27 IFIte = 11 Thresh = 1.00e-11
Using dP: JK
Finding J and K together
 ML is being used
 Job number = 22, Threshold = 1.00E-11
Integral type ranges set in mkLRange.C for JobNum: 22  <1-21|1-21>
 MakeJK  time:  CPU       3.88 s  wall       3.88 s
Fock build time:  3.88 s (CPU) 3.88 s (wall)
DIIS Errors:  Max 1.45E-07 RMS 1.25E-08

Current DIIS subspace size = 15
REM_GRID_RESTART_DIIS = 0

   27    -472.8515743039      1.25E-08  00000
Ite = 28 IFIte = 12 Thresh = 1.00e-11
Using dP: JK
Finding J and K together
 ML is being used
 Job number = 22, Threshold = 1.00E-11
Integral type ranges set in mkLRange.C for JobNum: 22  <1-21|1-21>
 MakeJK  time:  CPU       3.88 s  wall       3.88 s
Fock build time:  3.88 s (CPU) 3.89 s (wall)
DIIS Errors:  Max 7.59E-08 RMS 7.52E-09

Current DIIS subspace size = 15
REM_GRID_RESTART_DIIS = 0

   28    -472.8515743038      7.52E-09  00000 Convergence criterion met
 ---------------------------------------
 SCF time:  CPU 109.84 s  wall 109.93 s
 SCF   energy in the final basis set = -472.85157430
 Total energy in the final basis set = -472.85157430
drvman_main.C: 73: calling DrvMan  Calculating analytic gradient of the SCF energy
drvman.C : 218: Calculating analytic gradient of the SCF energy
drvman.C: 244: calling SCF_Grad for normal SCF gradient
 Job number = 111, Threshold = 1.00E-11
Integral type ranges set in mkLRange.C for JobNum: 11  <1-21|40-40>
Finding J and K together
 ML is being used
 Job number = 122, Threshold = 1.00E-11
Integral type ranges set in mkLRange.C for JobNum: 22  <1-21|1-21>
 MakeJK  time:  CPU      10.31 s  wall      10.29 s
 Gradient of SCF Energy
            1           2           3           4
    1   0.0313207   0.0016581  -0.0387487   0.0057700
    2   0.0084989   0.0287732  -0.0392283   0.0019562
    3  -0.0039368  -0.0093971  -0.0056054   0.0189394
 Max gradient component =       3.923E-02
 RMS gradient           =       2.132E-02
drvman.C: 248: out of SCF_Grad for normal SCF gradient
 Gradient time:  CPU 26.53 s  wall 26.52 s
 ------------------------------------------------------------------------------
                     drvman        : Timing summary (seconds)
 ------------------------------------------------------------------------------
     job step          cpu (% of tot)      sys (% of tot)     wall (% of tot)
 ------------------------------------------------------------------------------
 ------------------------------------------------------------------------------
   Grand Totals     0.2653E+02          0.1200E-04          0.2652E+02
 ------------------------------------------------------------------------------
drvman_main.C: 77: out of DrvMan  Time for this dynamics step: 138.5 s (CPU) 138.5 s (wall)

TIME STEP #3 (t = 40.000 a.u. = 0.96755 fs)
--------------------------------------
 Instantaneous Temperature = 474.8 K
 ----------------------------------------------------------------
             Standard Nuclear Orientation (Angstroms)
    I     Atom           X                Y                Z
 ----------------------------------------------------------------
    1      Pt     -1.6991110982     2.5423569000     0.3784256795
    2      Pt      0.2370350370     0.8045735621     0.3302128264
    3      Pt      0.6124421109     3.2174463293     0.1866002360
    4      Pt     -0.4065760497     1.9534232086    -2.0572987418
 ----------------------------------------------------------------
 Nuclear Repulsion Energy =   392.5484488781 hartrees
 There are       36 alpha and       36 beta electrons

                       Distance Matrix (Angstroms)
             Pt(  1)   Pt(  2)   Pt(  3)
   Pt(  2)  2.602091
   Pt(  3)  2.415744  2.446121
   Pt(  4)  2.819618  2.726592  2.769699

 Applying Cartesian multipole field
    Component          Value
    ---------          -----
     (2,0,0)        1.00000E-11
     (0,2,0)        2.00000E-11
     (0,0,2)       -3.00000E-11
 Nucleus-field energy     =     0.0000000209 hartrees
 ENuRep (before)= 392.5484488781
 ENucField = 0.0000000209
 ENuRep (after) = 392.5484488989
 Job number = 2, Threshold = 1.00E-11
Integral type ranges set in mkLRange.C for JobNum: 2  <1-21|1-21>
Symmetry turned off temporarily
Symmetry turned back on
 Job number = 2, Threshold = 1.00E-11
Integral type ranges set in mkLRange.C for JobNum: 2  <1-21|1-21>
Symmetry turned off temporarily
Symmetry turned back on
Integral type ranges set in mkLRange.C for JobNum: 18  <1-21|22-39>
Integral type ranges set in mkLRange.C for JobNum: 18  <1-21|22-39>
 Job number = 11, Threshold = 1.00E-11
Integral type ranges set in mkLRange.C for JobNum: 11  <1-21|40-40>
 Smallest overlap matrix eigenvalue = 1.77E-03
 Multipole matrices computed through 2nd order
 Guess from superposition of atomic densities
 Warning:  Energy on first SCF cycle will be non-variational
 SAD guess density has 72.000000 electrons
 SCF convergence criterion is 10**(-8)
 A restricted Hartree-Fock SCF calculation will be
 performed using Pulay DIIS extrapolation
 SCF converges when DIIS error is below 1.0E-08
Using Integral Screening
Finding J and K together
 ML is being used
 Job number = 22, Threshold = 1.00E-11
Integral type ranges set in mkLRange.C for JobNum: 22  <1-21|1-21>
 MakeJK  time:  CPU       2.10 s  wall       2.10 s
Fock build time:  2.10 s (CPU) 2.10 s (wall)
DIIS Errors:  Max 3.90E-01 RMS 3.88E-02

Current DIIS subspace size = 1
REM_GRID_RESTART_DIIS = 0

 ---------------------------------------
  Cycle       Energy         DIIS Error
 ---------------------------------------
    1    -472.9067763600      3.88E-02  00000
Ite = 2 IFIte = 1 Thresh = 1.00e-11
Finding J and K together
 Job number = 22, Threshold = 1.00E-11
Integral type ranges set in mkLRange.C for JobNum: 22  <1-21|1-21>
 MakeJK  time:  CPU       4.06 s  wall       4.07 s
Fock build time:  4.06 s (CPU) 4.07 s (wall)
DIIS Errors:  Max 1.21E-01 RMS 6.20E-03

Current DIIS subspace size = 2
REM_GRID_RESTART_DIIS = 0

    2    -472.7796642263      6.20E-03  00000
Ite = 3 IFIte = 2 Thresh = 1.00e-11
Using dP: JK
Finding J and K together
 ML is being used
 Job number = 22, Threshold = 1.00E-11
Integral type ranges set in mkLRange.C for JobNum: 22  <1-21|1-21>
 MakeJK  time:  CPU       4.08 s  wall       4.08 s
Fock build time:  4.08 s (CPU) 4.08 s (wall)
DIIS Errors:  Max 1.55E-01 RMS 7.24E-03

Current DIIS subspace size = 3
REM_GRID_RESTART_DIIS = 0

    3    -472.7869063596      7.24E-03  00000
Ite = 4 IFIte = 3 Thresh = 1.00e-11
Using dP: JK
Finding J and K together
 ML is being used
 Job number = 22, Threshold = 1.00E-11
Integral type ranges set in mkLRange.C for JobNum: 22  <1-21|1-21>
 MakeJK  time:  CPU       3.99 s  wall       4.00 s
Fock build time:  4.00 s (CPU) 4.00 s (wall)
DIIS Errors:  Max 8.25E-03 RMS 8.62E-04

Current DIIS subspace size = 4
REM_GRID_RESTART_DIIS = 0

    4    -472.8461344800      8.62E-04  00000
Ite = 5 IFIte = 4 Thresh = 1.00e-11
Using dP: JK
Finding J and K together
 ML is being used
 Job number = 22, Threshold = 1.00E-11
Integral type ranges set in mkLRange.C for JobNum: 22  <1-21|1-21>
 MakeJK  time:  CPU       3.99 s  wall       3.99 s
Fock build time:  3.99 s (CPU) 3.99 s (wall)
DIIS Errors:  Max 5.58E-03 RMS 5.00E-04

Current DIIS subspace size = 5
REM_GRID_RESTART_DIIS = 0

    5    -472.8495633642      5.00E-04  00000
Ite = 6 IFIte = 5 Thresh = 1.00e-11
Using dP: JK
Finding J and K together
 ML is being used
 Job number = 22, Threshold = 1.00E-11
Integral type ranges set in mkLRange.C for JobNum: 22  <1-21|1-21>
 MakeJK  time:  CPU       3.98 s  wall       3.98 s
Fock build time:  3.98 s (CPU) 3.98 s (wall)
DIIS Errors:  Max 4.26E-03 RMS 3.12E-04

Current DIIS subspace size = 6
REM_GRID_RESTART_DIIS = 0

    6    -472.8504781411      3.12E-04  00000
Ite = 7 IFIte = 6 Thresh = 1.00e-11
Using dP: JK
Finding J and K together
 ML is being used
 Job number = 22, Threshold = 1.00E-11
Integral type ranges set in mkLRange.C for JobNum: 22  <1-21|1-21>
 MakeJK  time:  CPU       3.97 s  wall       3.97 s
Fock build time:  3.97 s (CPU) 3.97 s (wall)
DIIS Errors:  Max 1.96E-03 RMS 1.55E-04

Current DIIS subspace size = 7
REM_GRID_RESTART_DIIS = 0

    7    -472.8508839522      1.55E-04  00000
Ite = 8 IFIte = 7 Thresh = 1.00e-11
Using dP: JK
Finding J and K together
 ML is being used
 Job number = 22, Threshold = 1.00E-11
Integral type ranges set in mkLRange.C for JobNum: 22  <1-21|1-21>
 MakeJK  time:  CPU       3.98 s  wall       3.98 s
Fock build time:  3.98 s (CPU) 3.98 s (wall)
DIIS Errors:  Max 1.10E-03 RMS 8.70E-05

Current DIIS subspace size = 8
REM_GRID_RESTART_DIIS = 0

    8    -472.8510923920      8.70E-05  00000
Ite = 9 IFIte = 8 Thresh = 1.00e-11
Using dP: JK
Finding J and K together
 ML is being used
 Job number = 22, Threshold = 1.00E-11
Integral type ranges set in mkLRange.C for JobNum: 22  <1-21|1-21>
 MakeJK  time:  CPU       3.98 s  wall       3.98 s
Fock build time:  3.98 s (CPU) 3.98 s (wall)
DIIS Errors:  Max 7.85E-04 RMS 5.13E-05

Current DIIS subspace size = 9
REM_GRID_RESTART_DIIS = 0

    9    -472.8512046580      5.13E-05  00000
Ite = 10 IFIte = 9 Thresh = 1.00e-11
Using dP: JK
Finding J and K together
 ML is being used
 Job number = 22, Threshold = 1.00E-11
Integral type ranges set in mkLRange.C for JobNum: 22  <1-21|1-21>
 MakeJK  time:  CPU       3.98 s  wall       3.98 s
Fock build time:  3.98 s (CPU) 3.98 s (wall)
DIIS Errors:  Max 5.33E-04 RMS 3.27E-05

Current DIIS subspace size = 10
REM_GRID_RESTART_DIIS = 0

   10    -472.8512513979      3.27E-05  00000
Ite = 11 IFIte = 10 Thresh = 1.00e-11
Using dP: JK
Finding J and K together
 ML is being used
 Job number = 22, Threshold = 1.00E-11
Integral type ranges set in mkLRange.C for JobNum: 22  <1-21|1-21>
 MakeJK  time:  CPU       3.97 s  wall       3.97 s
Fock build time:  3.97 s (CPU) 3.97 s (wall)
DIIS Errors:  Max 3.98E-04 RMS 2.73E-05

Current DIIS subspace size = 11
REM_GRID_RESTART_DIIS = 0

   11    -472.8512651631      2.73E-05  00000
Ite = 12 IFIte = 11 Thresh = 1.00e-11
Using dP: JK
Finding J and K together
 ML is being used
 Job number = 22, Threshold = 1.00E-11
Integral type ranges set in mkLRange.C for JobNum: 22  <1-21|1-21>
 MakeJK  time:  CPU       3.97 s  wall       3.97 s
Fock build time:  3.97 s (CPU) 3.97 s (wall)
DIIS Errors:  Max 2.59E-04 RMS 1.45E-05

Current DIIS subspace size = 12
REM_GRID_RESTART_DIIS = 0

   12    -472.8512743646      1.45E-05  00000
Ite = 13 IFIte = 12 Thresh = 1.00e-11
Using dP: JK
Finding J and K together
 ML is being used
 Job number = 22, Threshold = 1.00E-11
Integral type ranges set in mkLRange.C for JobNum: 22  <1-21|1-21>
 MakeJK  time:  CPU       3.97 s  wall       3.97 s
Fock build time:  3.97 s (CPU) 3.97 s (wall)
DIIS Errors:  Max 1.48E-04 RMS 9.44E-06

Current DIIS subspace size = 13
REM_GRID_RESTART_DIIS = 0

   13    -472.8512793541      9.44E-06  00000
Ite = 14 IFIte = 13 Thresh = 1.00e-11
Using dP: JK
Finding J and K together
 ML is being used
 Job number = 22, Threshold = 1.00E-11
Integral type ranges set in mkLRange.C for JobNum: 22  <1-21|1-21>
 MakeJK  time:  CPU       3.98 s  wall       3.98 s
Fock build time:  3.98 s (CPU) 3.98 s (wall)
DIIS Errors:  Max 7.68E-05 RMS 5.79E-06

Current DIIS subspace size = 14
REM_GRID_RESTART_DIIS = 0

   14    -472.8512814760      5.79E-06  00000
Ite = 15 IFIte = 14 Thresh = 1.00e-11
Using dP: JK
Finding J and K together
 ML is being used
 Job number = 22, Threshold = 1.00E-11
Integral type ranges set in mkLRange.C for JobNum: 22  <1-21|1-21>
 MakeJK  time:  CPU       4.12 s  wall       4.13 s
Fock build time:  4.12 s (CPU) 4.13 s (wall)
DIIS Errors:  Max 3.85E-05 RMS 3.45E-06

Current DIIS subspace size = 15
REM_GRID_RESTART_DIIS = 0

   15    -472.8512823277      3.45E-06  00000
Ite = 16 IFIte = 0 Thresh = 1.00e-11
Finding J and K together
 Job number = 22, Threshold = 1.00E-11
Integral type ranges set in mkLRange.C for JobNum: 22  <1-21|1-21>
 MakeJK  time:  CPU       4.02 s  wall       4.02 s
Fock build time:  4.02 s (CPU) 4.02 s (wall)
DIIS Errors:  Max 3.29E-05 RMS 2.34E-06

Current DIIS subspace size = 15
REM_GRID_RESTART_DIIS = 0

   16    -472.8512826012      2.34E-06  00000
Ite = 17 IFIte = 1 Thresh = 1.00e-11
Using dP: JK
Finding J and K together
 ML is being used
 Job number = 22, Threshold = 1.00E-11
Integral type ranges set in mkLRange.C for JobNum: 22  <1-21|1-21>
 MakeJK  time:  CPU       4.08 s  wall       4.09 s
Fock build time:  4.08 s (CPU) 4.09 s (wall)
DIIS Errors:  Max 2.71E-05 RMS 1.75E-06

Current DIIS subspace size = 15
REM_GRID_RESTART_DIIS = 0

   17    -472.8512827417      1.75E-06  00000
Ite = 18 IFIte = 2 Thresh = 1.00e-11
Using dP: JK
Finding J and K together
 ML is being used
 Job number = 22, Threshold = 1.00E-11
Integral type ranges set in mkLRange.C for JobNum: 22  <1-21|1-21>
 MakeJK  time:  CPU       4.08 s  wall       4.09 s
Fock build time:  4.08 s (CPU) 4.09 s (wall)
DIIS Errors:  Max 1.90E-05 RMS 1.17E-06

Current DIIS subspace size = 15
REM_GRID_RESTART_DIIS = 0

   18    -472.8512828481      1.17E-06  00000
Ite = 19 IFIte = 3 Thresh = 1.00e-11
Using dP: JK
Finding J and K together
 ML is being used
 Job number = 22, Threshold = 1.00E-11
Integral type ranges set in mkLRange.C for JobNum: 22  <1-21|1-21>
 MakeJK  time:  CPU       3.96 s  wall       3.97 s
Fock build time:  3.96 s (CPU) 3.97 s (wall)
DIIS Errors:  Max 8.37E-06 RMS 5.49E-07

Current DIIS subspace size = 15
REM_GRID_RESTART_DIIS = 0

   19    -472.8512829140      5.49E-07  00000
Ite = 20 IFIte = 4 Thresh = 1.00e-11
Using dP: JK
Finding J and K together
 ML is being used
 Job number = 22, Threshold = 1.00E-11
Integral type ranges set in mkLRange.C for JobNum: 22  <1-21|1-21>
 MakeJK  time:  CPU       3.96 s  wall       3.96 s
Fock build time:  3.96 s (CPU) 3.96 s (wall)
DIIS Errors:  Max 4.11E-06 RMS 2.99E-07

Current DIIS subspace size = 15
REM_GRID_RESTART_DIIS = 0

   20    -472.8512829235      2.99E-07  00000
Ite = 21 IFIte = 5 Thresh = 1.00e-11
Using dP: JK
Finding J and K together
 ML is being used
 Job number = 22, Threshold = 1.00E-11
Integral type ranges set in mkLRange.C for JobNum: 22  <1-21|1-21>
 MakeJK  time:  CPU       3.96 s  wall       3.96 s
Fock build time:  3.96 s (CPU) 3.96 s (wall)
DIIS Errors:  Max 2.53E-06 RMS 1.91E-07

Current DIIS subspace size = 15
REM_GRID_RESTART_DIIS = 0

   21    -472.8512829255      1.91E-07  00000
Ite = 22 IFIte = 6 Thresh = 1.00e-11
Using dP: JK
Finding J and K together
 ML is being used
 Job number = 22, Threshold = 1.00E-11
Integral type ranges set in mkLRange.C for JobNum: 22  <1-21|1-21>
 MakeJK  time:  CPU       3.94 s  wall       3.94 s
Fock build time:  3.94 s (CPU) 3.94 s (wall)
DIIS Errors:  Max 1.83E-06 RMS 1.38E-07

Current DIIS subspace size = 15
REM_GRID_RESTART_DIIS = 0

   22    -472.8512829263      1.38E-07  00000
Ite = 23 IFIte = 7 Thresh = 1.00e-11
Using dP: JK
Finding J and K together
 ML is being used
 Job number = 22, Threshold = 1.00E-11
Integral type ranges set in mkLRange.C for JobNum: 22  <1-21|1-21>
 MakeJK  time:  CPU       3.94 s  wall       3.94 s
Fock build time:  3.94 s (CPU) 3.94 s (wall)
DIIS Errors:  Max 1.08E-06 RMS 8.35E-08

Current DIIS subspace size = 15
REM_GRID_RESTART_DIIS = 0

   23    -472.8512829268      8.35E-08  00000
Ite = 24 IFIte = 8 Thresh = 1.00e-11
Using dP: JK
Finding J and K together
 ML is being used
 Job number = 22, Threshold = 1.00E-11
Integral type ranges set in mkLRange.C for JobNum: 22  <1-21|1-21>
 MakeJK  time:  CPU       3.93 s  wall       3.94 s
Fock build time:  3.93 s (CPU) 3.94 s (wall)
DIIS Errors:  Max 6.50E-07 RMS 5.05E-08

Current DIIS subspace size = 15
REM_GRID_RESTART_DIIS = 0

   24    -472.8512829271      5.05E-08  00000
Ite = 25 IFIte = 9 Thresh = 1.00e-11
Using dP: JK
Finding J and K together
 ML is being used
 Job number = 22, Threshold = 1.00E-11
Integral type ranges set in mkLRange.C for JobNum: 22  <1-21|1-21>
 MakeJK  time:  CPU       3.90 s  wall       3.90 s
Fock build time:  3.90 s (CPU) 3.90 s (wall)
DIIS Errors:  Max 4.36E-07 RMS 3.45E-08

Current DIIS subspace size = 15
REM_GRID_RESTART_DIIS = 0

   25    -472.8512829271      3.45E-08  00000
Ite = 26 IFIte = 10 Thresh = 1.00e-11
Using dP: JK
Finding J and K together
 ML is being used
 Job number = 22, Threshold = 1.00E-11
Integral type ranges set in mkLRange.C for JobNum: 22  <1-21|1-21>
 MakeJK  time:  CPU       3.90 s  wall       3.90 s
Fock build time:  3.90 s (CPU) 3.90 s (wall)
DIIS Errors:  Max 2.51E-07 RMS 2.25E-08

Current DIIS subspace size = 15
REM_GRID_RESTART_DIIS = 0

   26    -472.8512829271      2.25E-08  00000
Ite = 27 IFIte = 11 Thresh = 1.00e-11
Using dP: JK
Finding J and K together
 ML is being used
 Job number = 22, Threshold = 1.00E-11
Integral type ranges set in mkLRange.C for JobNum: 22  <1-21|1-21>
 MakeJK  time:  CPU       3.89 s  wall       3.88 s
Fock build time:  3.89 s (CPU) 3.88 s (wall)
DIIS Errors:  Max 1.45E-07 RMS 1.25E-08

Current DIIS subspace size = 15
REM_GRID_RESTART_DIIS = 0

   27    -472.8512829270      1.25E-08  00000
Ite = 28 IFIte = 12 Thresh = 1.00e-11
Using dP: JK
Finding J and K together
 ML is being used
 Job number = 22, Threshold = 1.00E-11
Integral type ranges set in mkLRange.C for JobNum: 22  <1-21|1-21>
 MakeJK  time:  CPU       3.88 s  wall       3.87 s
Fock build time:  3.88 s (CPU) 3.87 s (wall)
DIIS Errors:  Max 7.62E-08 RMS 7.53E-09

Current DIIS subspace size = 15
REM_GRID_RESTART_DIIS = 0

   28    -472.8512829270      7.53E-09  00000 Convergence criterion met
 ---------------------------------------
 SCF time:  CPU 109.94 s  wall 110.02 s
 SCF   energy in the final basis set = -472.85128293
 Total energy in the final basis set = -472.85128293
drvman_main.C: 73: calling DrvMan  Calculating analytic gradient of the SCF energy
drvman.C : 218: Calculating analytic gradient of the SCF energy
drvman.C: 244: calling SCF_Grad for normal SCF gradient
 Job number = 111, Threshold = 1.00E-11
Integral type ranges set in mkLRange.C for JobNum: 11  <1-21|40-40>
Finding J and K together
 ML is being used
 Job number = 122, Threshold = 1.00E-11
Integral type ranges set in mkLRange.C for JobNum: 22  <1-21|1-21>
 MakeJK  time:  CPU      10.03 s  wall      10.01 s
 Gradient of SCF Energy
            1           2           3           4
    1   0.0322945   0.0016419  -0.0397950   0.0058586
    2   0.0086643   0.0295770  -0.0402406   0.0019993
    3  -0.0040135  -0.0095274  -0.0056634   0.0192043
 Max gradient component =       4.024E-02
 RMS gradient           =       2.188E-02
drvman.C: 248: out of SCF_Grad for normal SCF gradient
 Gradient time:  CPU 26.41 s  wall 26.40 s
 ------------------------------------------------------------------------------
                     drvman        : Timing summary (seconds)
 ------------------------------------------------------------------------------
     job step          cpu (% of tot)      sys (% of tot)     wall (% of tot)
 ------------------------------------------------------------------------------
 ------------------------------------------------------------------------------
   Grand Totals     0.2641E+02          0.9000E-05          0.2640E+02
 ------------------------------------------------------------------------------
drvman_main.C: 77: out of DrvMan  Time for this dynamics step: 138.5 s (CPU) 138.5 s (wall)

TIME STEP #4 (t = 60.000 a.u. = 1.45133 fs)
--------------------------------------
 Instantaneous Temperature = 459.4 K
 ----------------------------------------------------------------
             Standard Nuclear Orientation (Angstroms)
    I     Atom           X                Y                Z
 ----------------------------------------------------------------
    1      Pt     -1.6986559831     2.5429496859     0.3782420090
    2      Pt      0.2370479732     0.8049139924     0.3298000110
    3      Pt      0.6110242398     3.2163140528     0.1866529797
    4      Pt     -0.4056262300     1.9536222689    -2.0567549995
 ----------------------------------------------------------------
 Nuclear Repulsion Energy =   392.7431907236 hartrees
 There are       36 alpha and       36 beta electrons

                       Distance Matrix (Angstroms)
             Pt(  1)   Pt(  2)   Pt(  3)
   Pt(  2)  2.601935
   Pt(  3)  2.413452  2.444422
   Pt(  4)  2.819298  2.725473  2.767824

 Applying Cartesian multipole field
    Component          Value
    ---------          -----
     (2,0,0)        1.00000E-11
     (0,2,0)        2.00000E-11
     (0,0,2)       -3.00000E-11
 Nucleus-field energy     =     0.0000000209 hartrees
 ENuRep (before)= 392.7431907236
 ENucField = 0.0000000209
 ENuRep (after) = 392.7431907445
 Job number = 2, Threshold = 1.00E-11
Integral type ranges set in mkLRange.C for JobNum: 2  <1-21|1-21>
Symmetry turned off temporarily
Symmetry turned back on
 Job number = 2, Threshold = 1.00E-11
Integral type ranges set in mkLRange.C for JobNum: 2  <1-21|1-21>
Symmetry turned off temporarily
Symmetry turned back on
Integral type ranges set in mkLRange.C for JobNum: 18  <1-21|22-39>
Integral type ranges set in mkLRange.C for JobNum: 18  <1-21|22-39>
 Job number = 11, Threshold = 1.00E-11
Integral type ranges set in mkLRange.C for JobNum: 11  <1-21|40-40>
 Smallest overlap matrix eigenvalue = 1.77E-03
 Multipole matrices computed through 2nd order
 Guess from superposition of atomic densities
 Warning:  Energy on first SCF cycle will be non-variational
 SAD guess density has 72.000000 electrons
 SCF convergence criterion is 10**(-8)
 A restricted Hartree-Fock SCF calculation will be
 performed using Pulay DIIS extrapolation
 SCF converges when DIIS error is below 1.0E-08
Using Integral Screening
Finding J and K together
 ML is being used
 Job number = 22, Threshold = 1.00E-11
Integral type ranges set in mkLRange.C for JobNum: 22  <1-21|1-21>
 MakeJK  time:  CPU       2.09 s  wall       2.09 s
Fock build time:  2.09 s (CPU) 2.09 s (wall)
DIIS Errors:  Max 3.91E-01 RMS 3.89E-02

Current DIIS subspace size = 1
REM_GRID_RESTART_DIIS = 0

 ---------------------------------------
  Cycle       Energy         DIIS Error
 ---------------------------------------
    1    -472.9108128749      3.89E-02  00000
Ite = 2 IFIte = 1 Thresh = 1.00e-11
Finding J and K together
 Job number = 22, Threshold = 1.00E-11
Integral type ranges set in mkLRange.C for JobNum: 22  <1-21|1-21>
 MakeJK  time:  CPU       3.98 s  wall       3.98 s
Fock build time:  3.98 s (CPU) 3.98 s (wall)
DIIS Errors:  Max 1.21E-01 RMS 6.20E-03

Current DIIS subspace size = 2
REM_GRID_RESTART_DIIS = 0

    2    -472.7794297727      6.20E-03  00000
Ite = 3 IFIte = 2 Thresh = 1.00e-11
Using dP: JK
Finding J and K together
 ML is being used
 Job number = 22, Threshold = 1.00E-11
Integral type ranges set in mkLRange.C for JobNum: 22  <1-21|1-21>
 MakeJK  time:  CPU       3.98 s  wall       3.98 s
Fock build time:  3.98 s (CPU) 3.98 s (wall)
DIIS Errors:  Max 1.55E-01 RMS 7.24E-03

Current DIIS subspace size = 3
REM_GRID_RESTART_DIIS = 0

    3    -472.7866284555      7.24E-03  00000
Ite = 4 IFIte = 3 Thresh = 1.00e-11
Using dP: JK
Finding J and K together
 ML is being used
 Job number = 22, Threshold = 1.00E-11
Integral type ranges set in mkLRange.C for JobNum: 22  <1-21|1-21>
 MakeJK  time:  CPU       3.98 s  wall       3.99 s
Fock build time:  3.98 s (CPU) 3.99 s (wall)
DIIS Errors:  Max 8.25E-03 RMS 8.62E-04

Current DIIS subspace size = 4
REM_GRID_RESTART_DIIS = 0

    4    -472.8458454844      8.62E-04  00000
Ite = 5 IFIte = 4 Thresh = 1.00e-11
Using dP: JK
Finding J and K together
 ML is being used
 Job number = 22, Threshold = 1.00E-11
Integral type ranges set in mkLRange.C for JobNum: 22  <1-21|1-21>
 MakeJK  time:  CPU       3.98 s  wall       3.98 s
Fock build time:  3.98 s (CPU) 3.98 s (wall)
DIIS Errors:  Max 5.59E-03 RMS 5.01E-04

Current DIIS subspace size = 5
REM_GRID_RESTART_DIIS = 0

    5    -472.8492689798      5.01E-04  00000
Ite = 6 IFIte = 5 Thresh = 1.00e-11
Using dP: JK
Finding J and K together
 ML is being used
 Job number = 22, Threshold = 1.00E-11
Integral type ranges set in mkLRange.C for JobNum: 22  <1-21|1-21>
 MakeJK  time:  CPU       4.53 s  wall       4.54 s
Fock build time:  4.54 s (CPU) 4.54 s (wall)
DIIS Errors:  Max 4.27E-03 RMS 3.12E-04

Current DIIS subspace size = 6
REM_GRID_RESTART_DIIS = 0

    6    -472.8501846582      3.12E-04  00000
Ite = 7 IFIte = 6 Thresh = 1.00e-11
Using dP: JK
Finding J and K together
 ML is being used
 Job number = 22, Threshold = 1.00E-11
Integral type ranges set in mkLRange.C for JobNum: 22  <1-21|1-21>
 MakeJK  time:  CPU       3.97 s  wall       3.98 s
Fock build time:  3.98 s (CPU) 3.98 s (wall)
DIIS Errors:  Max 1.96E-03 RMS 1.55E-04

Current DIIS subspace size = 7
REM_GRID_RESTART_DIIS = 0

    7    -472.8505908643      1.55E-04  00000
Ite = 8 IFIte = 7 Thresh = 1.00e-11
Using dP: JK
Finding J and K together
 ML is being used
 Job number = 22, Threshold = 1.00E-11
Integral type ranges set in mkLRange.C for JobNum: 22  <1-21|1-21>
 MakeJK  time:  CPU       3.98 s  wall       3.98 s
Fock build time:  3.98 s (CPU) 3.98 s (wall)
DIIS Errors:  Max 1.10E-03 RMS 8.72E-05

Current DIIS subspace size = 8
REM_GRID_RESTART_DIIS = 0

    8    -472.8507995893      8.72E-05  00000
Ite = 9 IFIte = 8 Thresh = 1.00e-11
Using dP: JK
Finding J and K together
 ML is being used
 Job number = 22, Threshold = 1.00E-11
Integral type ranges set in mkLRange.C for JobNum: 22  <1-21|1-21>
 MakeJK  time:  CPU       3.98 s  wall       3.98 s
Fock build time:  3.98 s (CPU) 3.98 s (wall)
DIIS Errors:  Max 7.88E-04 RMS 5.14E-05

Current DIIS subspace size = 9
REM_GRID_RESTART_DIIS = 0

    9    -472.8509122977      5.14E-05  00000
Ite = 10 IFIte = 9 Thresh = 1.00e-11
Using dP: JK
Finding J and K together
 ML is being used
 Job number = 22, Threshold = 1.00E-11
Integral type ranges set in mkLRange.C for JobNum: 22  <1-21|1-21>
 MakeJK  time:  CPU       4.09 s  wall       4.10 s
Fock build time:  4.09 s (CPU) 4.10 s (wall)
DIIS Errors:  Max 5.35E-04 RMS 3.28E-05

Current DIIS subspace size = 10
REM_GRID_RESTART_DIIS = 0

   10    -472.8509591844      3.28E-05  00000
Ite = 11 IFIte = 10 Thresh = 1.00e-11
Using dP: JK
Finding J and K together
 ML is being used
 Job number = 22, Threshold = 1.00E-11
Integral type ranges set in mkLRange.C for JobNum: 22  <1-21|1-21>
 MakeJK  time:  CPU       3.98 s  wall       3.98 s
Fock build time:  3.98 s (CPU) 3.98 s (wall)
DIIS Errors:  Max 4.01E-04 RMS 2.73E-05

Current DIIS subspace size = 11
REM_GRID_RESTART_DIIS = 0

   11    -472.8509729676      2.73E-05  00000
Ite = 12 IFIte = 11 Thresh = 1.00e-11
[...]
 ML is being used
 Job number = 22, Threshold = 1.00E-11
Integral type ranges set in mkLRange.C for JobNum: 22  <1-21|1-21>
 MakeJK  time:  CPU       3.95 s  wall       3.95 s
Fock build time:  3.95 s (CPU) 3.95 s (wall)
DIIS Errors:  Max 7.54E-07 RMS 5.73E-08

Current DIIS subspace size = 4
REM_GRID_RESTART_DIIS = 0

    4    -472.8527525513      5.73E-08  00000
Ite = 5 IFIte = 4 Thresh = 1.00e-11
Using dP: JK
Finding J and K together
 ML is being used
 Job number = 22, Threshold = 1.00E-11
Integral type ranges set in mkLRange.C for JobNum: 22  <1-21|1-21>
 MakeJK  time:  CPU       4.01 s  wall       4.02 s
Fock build time:  4.01 s (CPU) 4.02 s (wall)
DIIS Errors:  Max 5.08E-07 RMS 3.51E-08

Current DIIS subspace size = 5
REM_GRID_RESTART_DIIS = 0

    5    -472.8527525513      3.51E-08  00000
Ite = 6 IFIte = 5 Thresh = 1.00e-11
Using dP: JK
Finding J and K together
 ML is being used
 Job number = 22, Threshold = 1.00E-11
Integral type ranges set in mkLRange.C for JobNum: 22  <1-21|1-21>
 MakeJK  time:  CPU       3.99 s  wall       3.99 s
Fock build time:  3.99 s (CPU) 4.00 s (wall)
DIIS Errors:  Max 3.20E-07 RMS 2.66E-08

Current DIIS subspace size = 6
REM_GRID_RESTART_DIIS = 0

    6    -472.8527525514      2.66E-08  00000
Ite = 7 IFIte = 6 Thresh = 1.00e-11
Using dP: JK
Finding J and K together
 ML is being used
 Job number = 22, Threshold = 1.00E-11
Integral type ranges set in mkLRange.C for JobNum: 22  <1-21|1-21>
 MakeJK  time:  CPU       3.98 s  wall       3.98 s
Fock build time:  3.98 s (CPU) 3.98 s (wall)
DIIS Errors:  Max 1.89E-07 RMS 1.37E-08

Current DIIS subspace size = 7
REM_GRID_RESTART_DIIS = 0

    7    -472.8527525514      1.37E-08  00000
Ite = 8 IFIte = 7 Thresh = 1.00e-11
Using dP: JK
Finding J and K together
 ML is being used
 Job number = 22, Threshold = 1.00E-11
Integral type ranges set in mkLRange.C for JobNum: 22  <1-21|1-21>
 MakeJK  time:  CPU       3.94 s  wall       3.94 s
Fock build time:  3.94 s (CPU) 3.94 s (wall)
DIIS Errors:  Max 1.08E-07 RMS 8.73E-09

Current DIIS subspace size = 8
REM_GRID_RESTART_DIIS = 0

    8    -472.8527525515      8.73E-09  00000 Convergence criterion met
 ---------------------------------------
 SCF time:  CPU 27.99 s  wall 28.01 s
 SCF   energy in the final basis set = -472.85275255
 Total energy in the final basis set = -472.85275255
drvman_main.C: 73: calling DrvMan  Calculating analytic gradient of the SCF energy
drvman.C : 218: Calculating analytic gradient of the SCF energy
drvman.C: 244: calling SCF_Grad for normal SCF gradient
 Job number = 111, Threshold = 1.00E-11
Integral type ranges set in mkLRange.C for JobNum: 11  <1-21|40-40>
Finding J and K together
 ML is being used
 Job number = 122, Threshold = 1.00E-11
Integral type ranges set in mkLRange.C for JobNum: 22  <1-21|1-21>
 MakeJK  time:  CPU      10.40 s  wall      10.38 s
 Gradient of SCF Energy
            1           2           3           4
    1   0.0528437  -0.0286683  -0.0229374  -0.0012380
    2  -0.0205298   0.0363184  -0.0141113  -0.0016773
    3  -0.0000599  -0.0029747   0.0019679   0.0010667
 Max gradient component =       5.284E-02
 RMS gradient           =       2.254E-02
drvman.C: 248: out of SCF_Grad for normal SCF gradient
 Gradient time:  CPU 27.24 s  wall 27.23 s
 ------------------------------------------------------------------------------
                     drvman        : Timing summary (seconds)
 ------------------------------------------------------------------------------
     job step          cpu (% of tot)      sys (% of tot)     wall (% of tot)
 ------------------------------------------------------------------------------
 ------------------------------------------------------------------------------
   Grand Totals     0.2724E+02          0.1900E-04          0.2723E+02
 ------------------------------------------------------------------------------
drvman_main.C: 77: out of DrvMan  Time for this dynamics step: 57.4 s (CPU) 57.4 s (wall)

TIME STEP #299 (t = 5960.000 a.u. = 144.16551 fs)
--------------------------------------
 Instantaneous Temperature = 536.8 K
 ----------------------------------------------------------------
             Standard Nuclear Orientation (Angstroms)
    I     Atom           X                Y                Z
 ----------------------------------------------------------------
    1      Pt     -1.6834865104     2.4449181058     0.3132134017
    2      Pt      0.0655581341     0.8082651605     0.3733001541
    3      Pt      0.6281214385     3.2714199099     0.3375645370
    4      Pt     -0.2664030624     1.9931968235    -2.1861380917
 ----------------------------------------------------------------
 Nuclear Repulsion Energy =   386.3554758473 hartrees
 There are       36 alpha and       36 beta electrons

                       Distance Matrix (Angstroms)
             Pt(  1)   Pt(  2)   Pt(  3)
   Pt(  2)  2.396122
   Pt(  3)  2.455042  2.526833
   Pt(  4)  2.908425  2.839892  2.967002

 Applying Cartesian multipole field
    Component          Value
    ---------          -----
     (2,0,0)        1.00000E-11
     (0,2,0)        2.00000E-11
     (0,0,2)       -3.00000E-11
 Nucleus-field energy     =     0.0000000196 hartrees
 ENuRep (before)= 386.3554758473
 ENucField = 0.0000000196
 ENuRep (after) = 386.3554758669
 Job number = 2, Threshold = 1.00E-11
Integral type ranges set in mkLRange.C for JobNum: 2  <1-21|1-21>
Symmetry turned off temporarily
Symmetry turned back on
 Job number = 2, Threshold = 1.00E-11
Integral type ranges set in mkLRange.C for JobNum: 2  <1-21|1-21>
Symmetry turned off temporarily
Symmetry turned back on
Integral type ranges set in mkLRange.C for JobNum: 18  <1-21|22-39>
Integral type ranges set in mkLRange.C for JobNum: 18  <1-21|22-39>
 Job number = 11, Threshold = 1.00E-11
Integral type ranges set in mkLRange.C for JobNum: 11  <1-21|40-40>
 Smallest overlap matrix eigenvalue = 1.78E-03
 Multipole matrices computed through 2nd order
 Extrapolating the Fock matrix using 12 points and a 6th-order polynomial
 Alpha Fock matrix extrapolation
 Skip SCF guess (diagonalize extrapolated Fock matrix instead)
 SCF convergence criterion is 10**(-8)
 A restricted Hartree-Fock SCF calculation will be
 performed using Pulay DIIS extrapolation
 SCF converges when DIIS error is below 1.0E-08
Extrapolated Fock matrix used in lieu of Fock build
Fock build time:  0.00 s (CPU) 0.00 s (wall)
DIIS Errors:  Max 1.68E-03 RMS 1.24E-04

Current DIIS subspace size = 1
REM_GRID_RESTART_DIIS = 0

 ---------------------------------------
  Cycle       Energy         DIIS Error
 ---------------------------------------
    1   -1223.3854516303      1.24E-04  00000
Ite = 2 IFIte = 1 Thresh = 1.00e-11
Finding J and K together
 Job number = 22, Threshold = 1.00E-11
Integral type ranges set in mkLRange.C for JobNum: 22  <1-21|1-21>
 MakeJK  time:  CPU       4.06 s  wall       4.06 s
Fock build time:  4.06 s (CPU) 4.06 s (wall)
DIIS Errors:  Max 8.15E-07 RMS 5.48E-08

Current DIIS subspace size = 2
REM_GRID_RESTART_DIIS = 0

    2    -472.8524190078      5.48E-08  00000
Ite = 3 IFIte = 2 Thresh = 1.00e-11
Using dP: JK
Finding J and K together
 ML is being used
 Job number = 22, Threshold = 1.00E-11
Integral type ranges set in mkLRange.C for JobNum: 22  <1-21|1-21>
 MakeJK  time:  CPU       3.94 s  wall       3.94 s
Fock build time:  3.94 s (CPU) 3.94 s (wall)
DIIS Errors:  Max 7.04E-07 RMS 4.80E-08

Current DIIS subspace size = 3
REM_GRID_RESTART_DIIS = 0

    3    -472.8524190079      4.80E-08  00000
Ite = 4 IFIte = 3 Thresh = 1.00e-11
Using dP: JK
Finding J and K together
 ML is being used
 Job number = 22, Threshold = 1.00E-11
Integral type ranges set in mkLRange.C for JobNum: 22  <1-21|1-21>
 MakeJK  time:  CPU       3.92 s  wall       3.92 s
Fock build time:  3.92 s (CPU) 3.92 s (wall)
DIIS Errors:  Max 6.28E-07 RMS 4.12E-08

Current DIIS subspace size = 4
REM_GRID_RESTART_DIIS = 0

    4    -472.8524190079      4.12E-08  00000
Ite = 5 IFIte = 4 Thresh = 1.00e-11
Using dP: JK
Finding J and K together
 ML is being used
 Job number = 22, Threshold = 1.00E-11
Integral type ranges set in mkLRange.C for JobNum: 22  <1-21|1-21>
 MakeJK  time:  CPU       3.98 s  wall       3.99 s
Fock build time:  3.98 s (CPU) 3.99 s (wall)
DIIS Errors:  Max 2.82E-07 RMS 2.03E-08

Current DIIS subspace size = 5
REM_GRID_RESTART_DIIS = 0

    5    -472.8524190081      2.03E-08  00000
Ite = 6 IFIte = 5 Thresh = 1.00e-11
Using dP: JK
Finding J and K together
 ML is being used
 Job number = 22, Threshold = 1.00E-11
Integral type ranges set in mkLRange.C for JobNum: 22  <1-21|1-21>
 MakeJK  time:  CPU       3.95 s  wall       3.95 s
Fock build time:  3.95 s (CPU) 3.95 s (wall)
DIIS Errors:  Max 1.11E-07 RMS 1.00E-08

Current DIIS subspace size = 6
REM_GRID_RESTART_DIIS = 0

    6    -472.8524190082      1.00E-08  00000
Ite = 7 IFIte = 6 Thresh = 1.00e-11
Using dP: JK
Finding J and K together
 ML is being used
 Job number = 22, Threshold = 1.00E-11
Integral type ranges set in mkLRange.C for JobNum: 22  <1-21|1-21>
 MakeJK  time:  CPU       3.89 s  wall       3.90 s
Fock build time:  3.90 s (CPU) 3.90 s (wall)
DIIS Errors:  Max 8.06E-08 RMS 7.05E-09

Current DIIS subspace size = 7
REM_GRID_RESTART_DIIS = 0

    7    -472.8524190082      7.05E-09  00000 Convergence criterion met
 ---------------------------------------
 SCF time:  CPU 23.84 s  wall 23.86 s
 SCF   energy in the final basis set = -472.85241901
 Total energy in the final basis set = -472.85241901
drvman_main.C: 73: calling DrvMan  Calculating analytic gradient of the SCF energy
drvman.C : 218: Calculating analytic gradient of the SCF energy
drvman.C: 244: calling SCF_Grad for normal SCF gradient
 Job number = 111, Threshold = 1.00E-11
Integral type ranges set in mkLRange.C for JobNum: 11  <1-21|40-40>
Finding J and K together
 ML is being used
 Job number = 122, Threshold = 1.00E-11
Integral type ranges set in mkLRange.C for JobNum: 22  <1-21|1-21>
 MakeJK  time:  CPU      10.41 s  wall      10.39 s
 Gradient of SCF Energy
            1           2           3           4
    1   0.0544059  -0.0294658  -0.0236936  -0.0012464
    2  -0.0211525   0.0376574  -0.0148349  -0.0016701
    3  -0.0000263  -0.0030398   0.0019445   0.0011216
 Max gradient component =       5.441E-02
 RMS gradient           =       2.326E-02
drvman.C: 248: out of SCF_Grad for normal SCF gradient
 Gradient time:  CPU 27.17 s  wall 27.17 s
 ------------------------------------------------------------------------------
                     drvman        : Timing summary (seconds)
 ------------------------------------------------------------------------------
     job step          cpu (% of tot)      sys (% of tot)     wall (% of tot)
 ------------------------------------------------------------------------------
 ------------------------------------------------------------------------------
   Grand Totals     0.2717E+02          0.1300E-04          0.2717E+02
 ------------------------------------------------------------------------------
drvman_main.C: 77: out of DrvMan  Time for this dynamics step: 53.2 s (CPU) 53.2 s (wall)

TIME STEP #300 (t = 5980.000 a.u. = 144.64928 fs)
--------------------------------------
 Instantaneous Temperature = 519.2 K
 ----------------------------------------------------------------
             Standard Nuclear Orientation (Angstroms)
    I     Atom           X                Y                Z
 ----------------------------------------------------------------
    1      Pt     -1.6823184674     2.4442517825     0.3128079724
    2      Pt      0.0646756985     0.8094998447     0.3736143895
    3      Pt      0.6275091087     3.2706089847     0.3381282166
    4      Pt     -0.2660763398     1.9934393879    -2.1866105774
 ----------------------------------------------------------------
 Nuclear Repulsion Energy =   386.5432878406 hartrees
 There are       36 alpha and       36 beta electrons

                       Distance Matrix (Angstroms)
             Pt(  1)   Pt(  2)   Pt(  3)
   Pt(  2)  2.393345
   Pt(  3)  2.453326  2.524896
   Pt(  4)  2.907932  2.840046  2.967147

 Applying Cartesian multipole field
    Component          Value
    ---------          -----
     (2,0,0)        1.00000E-11
     (0,2,0)        2.00000E-11
     (0,0,2)       -3.00000E-11
 Nucleus-field energy     =     0.0000000196 hartrees
 ENuRep (before)= 386.5432878406
 ENucField = 0.0000000196
 ENuRep (after) = 386.5432878602
 Job number = 2, Threshold = 1.00E-11
Integral type ranges set in mkLRange.C for JobNum: 2  <1-21|1-21>
Symmetry turned off temporarily
Symmetry turned back on
 Job number = 2, Threshold = 1.00E-11
Integral type ranges set in mkLRange.C for JobNum: 2  <1-21|1-21>
Symmetry turned off temporarily
Symmetry turned back on
Integral type ranges set in mkLRange.C for JobNum: 18  <1-21|22-39>
Integral type ranges set in mkLRange.C for JobNum: 18  <1-21|22-39>
 Job number = 11, Threshold = 1.00E-11
Integral type ranges set in mkLRange.C for JobNum: 11  <1-21|40-40>
 Smallest overlap matrix eigenvalue = 1.77E-03
 Multipole matrices computed through 2nd order
 Extrapolating the Fock matrix using 12 points and a 6th-order polynomial
 Alpha Fock matrix extrapolation
 Skip SCF guess (diagonalize extrapolated Fock matrix instead)
 SCF convergence criterion is 10**(-8)
 A restricted Hartree-Fock SCF calculation will be
 performed using Pulay DIIS extrapolation
 SCF converges when DIIS error is below 1.0E-08
Extrapolated Fock matrix used in lieu of Fock build
Fock build time:  0.00 s (CPU) 0.00 s (wall)
DIIS Errors:  Max 1.65E-03 RMS 1.22E-04

Current DIIS subspace size = 1
REM_GRID_RESTART_DIIS = 0

 ---------------------------------------
  Cycle       Energy         DIIS Error
 ---------------------------------------
    1   -1223.5669433723      1.22E-04  00000
Ite = 2 IFIte = 1 Thresh = 1.00e-11
Finding J and K together
 Job number = 22, Threshold = 1.00E-11
Integral type ranges set in mkLRange.C for JobNum: 22  <1-21|1-21>
 MakeJK  time:  CPU       4.00 s  wall       4.00 s
Fock build time:  4.00 s (CPU) 4.00 s (wall)
DIIS Errors:  Max 9.90E-07 RMS 7.14E-08

Current DIIS subspace size = 2
REM_GRID_RESTART_DIIS = 0

    2    -472.8520821841      7.14E-08  00000
Ite = 3 IFIte = 2 Thresh = 1.00e-11
Using dP: JK
Finding J and K together
 ML is being used
 Job number = 22, Threshold = 1.00E-11
Integral type ranges set in mkLRange.C for JobNum: 22  <1-21|1-21>
 MakeJK  time:  CPU       3.84 s  wall       3.84 s
Fock build time:  3.84 s (CPU) 3.84 s (wall)
DIIS Errors:  Max 8.91E-07 RMS 6.11E-08

Current DIIS subspace size = 3
REM_GRID_RESTART_DIIS = 0

    3    -472.8520821841      6.11E-08  00000
Ite = 4 IFIte = 3 Thresh = 1.00e-11
Using dP: JK
Finding J and K together
 ML is being used
 Job number = 22, Threshold = 1.00E-11
Integral type ranges set in mkLRange.C for JobNum: 22  <1-21|1-21>
 MakeJK  time:  CPU       3.80 s  wall       3.80 s
Fock build time:  3.80 s (CPU) 3.80 s (wall)
DIIS Errors:  Max 8.27E-07 RMS 5.56E-08

Current DIIS subspace size = 4
REM_GRID_RESTART_DIIS = 0

    4    -472.8520821842      5.56E-08  00000
Ite = 5 IFIte = 4 Thresh = 1.00e-11
Using dP: JK
Finding J and K together
 ML is being used
 Job number = 22, Threshold = 1.00E-11
Integral type ranges set in mkLRange.C for JobNum: 22  <1-21|1-21>
 MakeJK  time:  CPU       3.88 s  wall       3.88 s
Fock build time:  3.88 s (CPU) 3.88 s (wall)
DIIS Errors:  Max 4.77E-07 RMS 3.12E-08

Current DIIS subspace size = 5
REM_GRID_RESTART_DIIS = 0

    5    -472.8520821843      3.12E-08  00000
Ite = 6 IFIte = 5 Thresh = 1.00e-11
Using dP: JK
Finding J and K together
 ML is being used
 Job number = 22, Threshold = 1.00E-11
Integral type ranges set in mkLRange.C for JobNum: 22  <1-21|1-21>
 MakeJK  time:  CPU       3.85 s  wall       3.85 s
Fock build time:  3.85 s (CPU) 3.85 s (wall)
DIIS Errors:  Max 2.95E-07 RMS 2.34E-08

Current DIIS subspace size = 6
REM_GRID_RESTART_DIIS = 0

    6    -472.8520821843      2.34E-08  00000
Ite = 7 IFIte = 6 Thresh = 1.00e-11
Using dP: JK
Finding J and K together
 ML is being used
 Job number = 22, Threshold = 1.00E-11
Integral type ranges set in mkLRange.C for JobNum: 22  <1-21|1-21>
 MakeJK  time:  CPU       3.85 s  wall       3.85 s
Fock build time:  3.85 s (CPU) 3.85 s (wall)
DIIS Errors:  Max 2.04E-07 RMS 1.38E-08

Current DIIS subspace size = 7
REM_GRID_RESTART_DIIS = 0

    7    -472.8520821844      1.38E-08  00000
Ite = 8 IFIte = 7 Thresh = 1.00e-11
Using dP: JK
Finding J and K together
 ML is being used
 Job number = 22, Threshold = 1.00E-11
Integral type ranges set in mkLRange.C for JobNum: 22  <1-21|1-21>
 MakeJK  time:  CPU       3.82 s  wall       3.82 s
Fock build time:  3.82 s (CPU) 3.82 s (wall)
DIIS Errors:  Max 1.11E-07 RMS 8.64E-09

Current DIIS subspace size = 8
REM_GRID_RESTART_DIIS = 0

    8    -472.8520821845      8.64E-09  00000 Convergence criterion met
 ---------------------------------------
 SCF time:  CPU 27.16 s  wall 27.18 s
 SCF   energy in the final basis set = -472.85208218
 Total energy in the final basis set = -472.85208218
drvman_main.C: 73: calling DrvMan  Calculating analytic gradient of the SCF energy
drvman.C : 218: Calculating analytic gradient of the SCF energy
drvman.C: 244: calling SCF_Grad for normal SCF gradient
 Job number = 111, Threshold = 1.00E-11
Integral type ranges set in mkLRange.C for JobNum: 11  <1-21|40-40>
Finding J and K together
 ML is being used
 Job number = 122, Threshold = 1.00E-11
Integral type ranges set in mkLRange.C for JobNum: 22  <1-21|1-21>
 MakeJK  time:  CPU      10.60 s  wall      10.58 s
 Gradient of SCF Energy
            1           2           3           4
    1   0.0559487  -0.0302558  -0.0244385  -0.0012545
    2  -0.0217712   0.0389852  -0.0155512  -0.0016629
    3   0.0000092  -0.0031042   0.0019211   0.0011739
 Max gradient component =       5.595E-02
 RMS gradient           =       2.398E-02
drvman.C: 248: out of SCF_Grad for normal SCF gradient
 Gradient time:  CPU 26.84 s  wall 26.83 s
 ------------------------------------------------------------------------------
                     drvman        : Timing summary (seconds)
 ------------------------------------------------------------------------------
     job step          cpu (% of tot)      sys (% of tot)     wall (% of tot)
 ------------------------------------------------------------------------------
 ------------------------------------------------------------------------------
   Grand Totals     0.2684E+02          0.1300E-04          0.2683E+02
 ------------------------------------------------------------------------------
drvman_main.C: 77: out of DrvMan  Time for this dynamics step: 56.1 s (CPU) 56.1 s (wall)

=============== TIME STEPS COMPLETED ==================

Step-to-Step energy fluctuations, |E(n) - E(n-1)|
Mean: -5.136e-10   Max: 4.569e-08   RMS: 2.078e-08
Overall energy fluctuations, |E(n) - E(0)|
Mean: 2.006e-07   Max: 9.936e-07   RMS: 4.718e-07   RMS(dE)/RMS(dV): 1.156e-04
Kinetic energy fluctuations, |T(n) - V(0)|
Mean: -1.072e-03   Max: 7.374e-03   RMS: 4.081e-03
Potential energy fluctuations, |V(n) - V(0)|
Mean: 1.072e-03   Max: 7.375e-03   RMS: 4.081e-03


 JobOver = TRUE
Archival summary:
1\1\qciep03\JobtypUnspecified\HF\BasisUnspecified\t4(+,1)\jcartus\TueMay2214:30:072018TueMay2214:30:072018\0\\#,JobtypUnspecified,HF,BasisUnspecified,\\240,1\Pt\Pt,1,2.39334\Pt,1,2.45333,2,62.7782\Pt,2,2.84005,1,66.8803,3,-75.7668,0\\HF=-472.852082\\@

 Total job time:  19024.50s(wall), 19016.78s(cpu) 
 Tue May 22 14:30:07 2018

        *************************************************************
        *                                                           *
        *  Thank you very much for using Q-Chem.  Have a nice day.  *
        *                                                           *
        *************************************************************


*** MISSION COMPLETED -- STARFLEET OUT ***

0 sent ACK to 0 
now end server 0 ... 
