This is a multi-thread run using 8 threads
/usr/local/qchem/bin/parallel.csh,  , pt_lanl2dz.2.inp, 1, 0, /home/jcartus/scratch/qchem24630/
MPIRUN in parallel.csh is mpirun
P4_RSHCOMMAND in parallel.csh is ssh
QCOUTFILE is stdout
Q-Chem machineFile is /usr/local/qchem/bin/mpi/machines 
Process 0 of 1 is on qciep03 - thread support 0
initial socket setup ...start
initial socket setup ...done 
now start server 0 ... 
qciep03.tugraz.at 127.0.1
Q-Chem Developer Version! Running on 127.0.1.*
                  Welcome to Q-Chem
     A Quantum Leap Into The Future Of Chemistry


 Q-Chem 5.0, Q-Chem, Inc., Pleasanton, CA (2017)

 Yihan Shao,  Zhengting Gan,  E. Epifanovsky,  A. T. B. Gilbert,  M. Wormit,  
 J. Kussmann,  A. W. Lange,  A. Behn,  Jia Deng,  Xintian Feng,  D. Ghosh,  
 M. Goldey,  P. R. Horn,  L. D. Jacobson,  I. Kaliman,  T. Kus,  A. Landau,  
 Jie Liu,  E. I. Proynov,  R. M. Richard,  R. P. Steele,  E. J. Sundstrom,  
 H. L. Woodcock III,  P. M. Zimmerman,  D. Zuev,  B. Albrecht,  E. Alguire,  
 S. A. Baeppler,  D. Barton,  Z. Benda,  Y. A. Bernard,  E. J. Berquist,  
 K. B. Bravaya,  H. Burton,  D. Casanova,  Chun-Min Chang,  Yunqing Chen,  
 A. Chien,  K. D. Closser,  M. P. Coons,  S. Dasgupta,  A. L. Dempwolff,  
 M. Diedenhofen,  Hainam Do,  R. G. Edgar,  Po-Tung Fang,  S. Fatehi,  
 Qingguo Feng,  J. Fosso-Tande,  Qinghui Ge,  A. Ghysels,  G. Gidofalvi,  
 J. Gomes,  J. Gonthier,  A. Gunina,  M. W. D. Hanson-Heine,  
 P. H. P. Harbach,  A. W. Hauser,  J. E. Herr,  E. G. Hohenstein,  
 Z. C. Holden,  Kerwin Hui,  T.-C. Jagau,  Hyunjun Ji,  B. Kaduk,  
 K. Khistyaev,  Jaehoon Kim,  P. Klunzinger,  K. Koh,  D. Kosenkov,  
 L. Koulias,  T. Kowalczyk,  C. M. Krauter,  A. Kunitsa,  Ka Un Lao,  
 A. Laurent,  K. V. Lawler,  Joonho Lee,  D. Lefrancois,  S. Lehtola,  
 D. S. Levine,  Yi-Pei Li,  You-Sheng Lin,  Fenglai Liu,  E. Livshits,  
 A. Luenser,  P. Manohar,  E. Mansoor,  S. F. Manzer,  Shan-Ping Mao,  
 Yuezhi Mao,  N. Mardirossian,  A. V. Marenich,  T. Markovich,  
 L. A. Martinez-Martinez,  S. A. Maurer,  N. J. Mayhall,  S. C. McKenzie,  
 J.-M. Mewes,  A. F. Morrison,  J. W. Mullinax,  K. Nanda,  
 T. S. Nguyen-Beck,  R. Olivares-Amaya,  J. A. Parkhill,  T. M. Perrine,  
 F. Plasser,  S. Prager,  A. Prociuk,  E. Ramos,  D. R. Rehn,  F. Rob,  
 M. Schneider,  N. Sergueev,  S. M. Sharada,  S. Sharma,  D. W. Small,  
 T. Stauch,  T. Stein,  Yu-Chuan Su,  A. J. W. Thom,  A. Tkatchenko,  
 T. Tsuchimochi,  L. Vogt,  O. Vydrov,  M. A. Watson,  J. Wenzel,  
 M. de Wergifosse,  T. A. Wesolowski,  A. White,  J. Witte,  A. Yamada,  
 Jun Yang,  K. Yao,  S. Yeganeh,  S. R. Yost,  Zhi-Qiang You,  A. Zech,  
 Igor Ying Zhang,  Xing Zhang,  Yan Zhao,  Ying Zhu,  B. R. Brooks,  
 G. K. L. Chan,  C. J. Cramer,  M. S. Gordon,  W. J. Hehre,  A. Klamt,  
 M. W. Schmidt,  C. D. Sherrill,  D. G. Truhlar,  A. Aspuru-Guzik,  R. Baer,  
 A. T. Bell,  N. A. Besley,  Jeng-Da Chai,  R. A. DiStasio Jr.,  A. Dreuw,  
 B. D. Dunietz,  T. R. Furlani,  Chao-Ping Hsu,  Yousung Jung,  Jing Kong,  
 D. S. Lambrecht,  WanZhen Liang,  C. Ochsenfeld,  V. A. Rassolov,  
 L. V. Slipchenko,  J. E. Subotnik,  T. Van Voorhis,  J. M. Herbert,  
 A. I. Krylov,  P. M. W. Gill,  M. Head-Gordon

 Contributors to earlier versions of Q-Chem not listed above: 
 R. D. Adamson,  B. Austin,  J. Baker,  G. J. O. Beran,  K. Brandhorst,  
 S. T. Brown,  E. F. C. Byrd,  A. K. Chakraborty,  C.-L. Cheng,  
 Siu Hung Chien,  D. M. Chipman,  D. L. Crittenden,  H. Dachsel,  
 R. J. Doerksen,  A. D. Dutoi,  L. Fusti-Molnar,  W. A. Goddard III,  
 A. Golubeva-Zadorozhnaya,  S. R. Gwaltney,  G. Hawkins,  A. Heyden,  
 S. Hirata,  G. Kedziora,  F. J. Keil,  C. Kelley,  Jihan Kim,  R. A. King,  
 R. Z. Khaliullin,  P. P. Korambath,  W. Kurlancheek,  A. M. Lee,  M. S. Lee,  
 S. V. Levchenko,  Ching Yeh Lin,  D. Liotard,  R. C. Lochan,  I. Lotan,  
 P. E. Maslen,  N. Nair,  D. P. O'Neill,  D. Neuhauser,  E. Neuscamman,  
 C. M. Oana,  R. Olson,  B. Peters,  R. Peverati,  P. A. Pieniazek,  
 Y. M. Rhee,  J. Ritchie,  M. A. Rohrdanz,  E. Rosta,  N. J. Russ,  
 H. F. Schaefer III,  N. E. Schultz,  N. Shenvi,  A. C. Simmonett,  A. Sodt,  
 D. Stuck,  K. S. Thanthiriwatte,  V. Vanovschi,  Tao Wang,  A. Warshel,  
 C. F. Williams,  Q. Wu,  X. Xu,  W. Zhang

 Please cite Q-Chem as follows:
 Y. Shao et al., Mol. Phys. 113, 184-215 (2015)
 DOI: 10.1080/00268976.2014.952696

 Q-Chem 5.0.2 for Intel X86 EM64T Linux

 Parts of Q-Chem use Armadillo 5.200.1 (Boston Tea Smuggler).
 http://arma.sourceforge.net/

 Q-Chem begins on Mon May 21 11:43:04 2018  


Host: 0

     Scratch files written to /home/jcartus/scratch/qchem24630//
 Using version located at /usr/local/qchem/bin/qchem

 Parallel job on  1  processors
Symmetry disabled for AIMD jobs.

Total Memory Limit in MB = 2000
Mega-Array Size in MB = 192

Checking the input file for inconsistencies... 	...done.
Finally everything over in PARseQInput

--------------------------------------------------------------
User input:
--------------------------------------------------------------
$molecule
   0 1
  Pt        -1.84000        2.49638        0.28184
  Pt         0.18301        0.66739        0.34670
  Pt         0.75541        3.32858        0.16673
  Pt        -0.35463        2.02545       -1.95733
$end

$rem
   JOBTYPE              aimd
   AIMD_METHOD          bomd
   METHOD               hf
   BASIS                lanl2dz
   ECP                  lanl2dz
   TIME_STEP            20        (20 a.u. = 0.48 fs) 
   AIMD_STEPS           200
   AIMD_INIT_VELOC      thermal
   AIMD_TEMP            700
   MAX_SCF_CYCLES       100
   FOCK_EXTRAP_ORDER    6         
   FOCK_EXTRAP_POINTS   12
$end 
--------------------------------------------------------------
 ----------------------------------------------------------------
             Standard Nuclear Orientation (Angstroms)
    I     Atom           X                Y                Z
 ----------------------------------------------------------------
    1      Pt     -1.8400000000     2.4963800000     0.2818400000
    2      Pt      0.1830100000     0.6673900000     0.3467000000
    3      Pt      0.7554100000     3.3285800000     0.1667300000
    4      Pt     -0.3546300000     2.0254500000    -1.9573300000
 ----------------------------------------------------------------
 Nuclear Repulsion Energy =   377.0974340653 hartrees
 There are       36 alpha and       36 beta electrons
 Requested basis set is LANL2DZ
 Compound shells will be simplified
 There are 32 shells and 88 basis functions

 Total QAlloc Memory Limit   2000 MB
 Mega-Array Size       188 MB
 MEM_STATIC part       192 MB

finished with qalloc call

                       Distance Matrix (Angstroms)
             Pt(  1)   Pt(  2)   Pt(  3)
   Pt(  2)  2.727999
   Pt(  3)  2.727996  2.727996
   Pt(  4)  2.728000  2.727992  2.727997

 Job number = 2, Threshold = 1.00E-11
Integral type ranges set in mkLRange.C for JobNum: 2  <1-21|1-21>
Symmetry turned off temporarily
 Using the largest function pair in Schwarz integrals
Total number of integrals generated =           88908
Symmetry turned back on
 A cutoff of  1.0D-11 yielded    528 shell pairs
 There are      4032 function pairs (      4812 Cartesian)
 Requested basis set is LANL2DZ
 Compound shells will be simplified
 There are 32 shells and 88 basis functions
 Job number = 2, Threshold = 1.00E-11
Integral type ranges set in mkLRange.C for JobNum: 2  <1-21|1-21>
Symmetry turned off temporarily
Symmetry turned back on
 A cutoff of  1.0D-11 yielded    528 shell pairs
 There are      4032 function pairs (      4812 Cartesian)
Integral type ranges set in mkLRange.C for JobNum: 18  <1-21|22-39>

 Q-Chem warning in module /usr/local/qchem/libqints/libqints/qchem/aobasis.C, line 99:

 Using a reconstructed effective core potential

Integral type ranges set in mkLRange.C for JobNum: 18  <1-21|22-39>
 Job number = 11, Threshold = 1.00E-11
Integral type ranges set in mkLRange.C for JobNum: 11  <1-21|40-40>
Total number of integrals generated =           19248
 Smallest overlap matrix eigenvalue = 3.43E-03
 Multipole matrices computed through 2nd order

 Scale SEOQF with 1.000000e-01/1.000000e-01/1.000000e-01

 Standard Electronic Orientation quadrupole field applied
 Nucleus-field energy     =     0.0000000229 hartrees
 ENuRep (before)= 377.0974340653
 ENucField = 0.0000000229
 ENuRep (after) = 377.0974340883
 Guess from superposition of atomic densities
 Warning:  Energy on first SCF cycle will be non-variational
 SAD guess density has 72.000000 electrons

 ==================================================
    GEN_SCFMAN: A general SCF calculation manager  
                                                   
    Authors:                                       
        -- Eric Jon Sundstrom 2008-2014            
        -- Paul Horn 2010-2015                     
        -- Yuezhi Mao 2012-                        
        -- Dmitri Zuev 2014                        
        -- Alec White 2015-                        
        -- David Stuck 2015                        
        -- Shaama M.S. 2015                        
        -- Shane Yost 2015-                         
        -- Joonho Lee 2016-                        
        -- David Small 2016-                       
        -- Daniel Levine 2016-                     
        -- Susi Lehtola 2017-                      
        -- Hugh Burton 2017-                       
 ==================================================
 Hartree-Fock
Finding J and K together
 Job number = 22, Threshold = 1.00E-11
Integral type ranges set in mkLRange.C for JobNum: 22  <1-21|1-21>
 MakeJK  time:  CPU       2.14 s  wall       2.15 s
 A restricted SCF calculation will be
 performed using DIIS
 SCF converges when DIIS error is below 1.0e-08
 ---------------------------------------
  Cycle       Energy         DIIS error
 ---------------------------------------
Finding J and K together
 Job number = 22, Threshold = 1.00E-11
Integral type ranges set in mkLRange.C for JobNum: 22  <1-21|1-21>
 MakeJK  time:  CPU       3.96 s  wall       3.97 s
    1    -472.5942881425      3.24e-02  
Finding J and K together
 Job number = 22, Threshold = 1.00E-11
Integral type ranges set in mkLRange.C for JobNum: 22  <1-21|1-21>
 MakeJK  time:  CPU       3.92 s  wall       3.92 s
    2    -472.7678215825      6.10e-03  
Finding J and K together
 Job number = 22, Threshold = 1.00E-11
Integral type ranges set in mkLRange.C for JobNum: 22  <1-21|1-21>
 MakeJK  time:  CPU       3.92 s  wall       3.93 s
    3    -472.7673471841      7.43e-03  
Finding J and K together
 Job number = 22, Threshold = 1.00E-11
Integral type ranges set in mkLRange.C for JobNum: 22  <1-21|1-21>
 MakeJK  time:  CPU       3.92 s  wall       3.92 s
    4    -472.8307104431      9.77e-04  
Finding J and K together
 Job number = 22, Threshold = 1.00E-11
Integral type ranges set in mkLRange.C for JobNum: 22  <1-21|1-21>
 MakeJK  time:  CPU       3.92 s  wall       3.92 s
    5    -472.8343696198      6.79e-04  
Finding J and K together
 Job number = 22, Threshold = 1.00E-11
Integral type ranges set in mkLRange.C for JobNum: 22  <1-21|1-21>
 MakeJK  time:  CPU       3.91 s  wall       3.92 s
    6    -472.8359089663      3.97e-04  
Finding J and K together
 Job number = 22, Threshold = 1.00E-11
Integral type ranges set in mkLRange.C for JobNum: 22  <1-21|1-21>
 MakeJK  time:  CPU       3.92 s  wall       3.93 s
    7    -472.8365873473      2.14e-04  
Finding J and K together
 Job number = 22, Threshold = 1.00E-11
Integral type ranges set in mkLRange.C for JobNum: 22  <1-21|1-21>
 MakeJK  time:  CPU       3.92 s  wall       3.93 s
    8    -472.8370124678      1.04e-04  
Finding J and K together
 Job number = 22, Threshold = 1.00E-11
Integral type ranges set in mkLRange.C for JobNum: 22  <1-21|1-21>
 MakeJK  time:  CPU       3.92 s  wall       3.92 s
    9    -472.8371989073      7.32e-05  
Finding J and K together
 Job number = 22, Threshold = 1.00E-11
Integral type ranges set in mkLRange.C for JobNum: 22  <1-21|1-21>
 MakeJK  time:  CPU       3.92 s  wall       3.93 s
   10    -472.8372530589      6.49e-05  
Finding J and K together
 Job number = 22, Threshold = 1.00E-11
Integral type ranges set in mkLRange.C for JobNum: 22  <1-21|1-21>
 MakeJK  time:  CPU       3.92 s  wall       3.92 s
   11    -472.8373140201      4.95e-05  
Finding J and K together
 Job number = 22, Threshold = 1.00E-11
Integral type ranges set in mkLRange.C for JobNum: 22  <1-21|1-21>
 MakeJK  time:  CPU       3.91 s  wall       3.92 s
   12    -472.8373831397      4.14e-05  
Finding J and K together
 Job number = 22, Threshold = 1.00E-11
Integral type ranges set in mkLRange.C for JobNum: 22  <1-21|1-21>
 MakeJK  time:  CPU       4.04 s  wall       4.04 s
   13    -472.8374426087      3.66e-05  
Finding J and K together
 Job number = 22, Threshold = 1.00E-11
Integral type ranges set in mkLRange.C for JobNum: 22  <1-21|1-21>
 MakeJK  time:  CPU       3.92 s  wall       3.92 s
   14    -472.8374817567      3.58e-05  
Finding J and K together
 Job number = 22, Threshold = 1.00E-11
Integral type ranges set in mkLRange.C for JobNum: 22  <1-21|1-21>
 MakeJK  time:  CPU       4.04 s  wall       4.04 s
   15    -472.8375278092      3.47e-05  
Finding J and K together
 Job number = 22, Threshold = 1.00E-11
Integral type ranges set in mkLRange.C for JobNum: 22  <1-21|1-21>
 MakeJK  time:  CPU       4.06 s  wall       4.06 s
   16    -472.8375710684      3.44e-05  
Finding J and K together
 Job number = 22, Threshold = 1.00E-11
Integral type ranges set in mkLRange.C for JobNum: 22  <1-21|1-21>
 MakeJK  time:  CPU       3.92 s  wall       3.92 s
   17    -472.8376497373      3.39e-05  
Finding J and K together
 Job number = 22, Threshold = 1.00E-11
Integral type ranges set in mkLRange.C for JobNum: 22  <1-21|1-21>
 MakeJK  time:  CPU       3.92 s  wall       3.92 s
   18    -472.8378444552      3.28e-05  
Finding J and K together
 Job number = 22, Threshold = 1.00E-11
Integral type ranges set in mkLRange.C for JobNum: 22  <1-21|1-21>
 MakeJK  time:  CPU       3.92 s  wall       3.92 s
   19    -472.8378197344      3.75e-05  
Finding J and K together
 Job number = 22, Threshold = 1.00E-11
Integral type ranges set in mkLRange.C for JobNum: 22  <1-21|1-21>
 MakeJK  time:  CPU       3.92 s  wall       3.92 s
   20    -472.8380385118      5.52e-05  
Finding J and K together
 Job number = 22, Threshold = 1.00E-11
Integral type ranges set in mkLRange.C for JobNum: 22  <1-21|1-21>
 MakeJK  time:  CPU       3.92 s  wall       3.92 s
   21    -472.8380330895      5.11e-05  
Finding J and K together
 Job number = 22, Threshold = 1.00E-11
Integral type ranges set in mkLRange.C for JobNum: 22  <1-21|1-21>
 MakeJK  time:  CPU       3.92 s  wall       3.93 s
   22    -472.8381321644      1.44e-05  
Finding J and K together
 Job number = 22, Threshold = 1.00E-11
Integral type ranges set in mkLRange.C for JobNum: 22  <1-21|1-21>
 MakeJK  time:  CPU       3.92 s  wall       3.93 s
   23    -472.8381617851      3.84e-05  
Finding J and K together
 Job number = 22, Threshold = 1.00E-11
Integral type ranges set in mkLRange.C for JobNum: 22  <1-21|1-21>
 MakeJK  time:  CPU       3.92 s  wall       3.92 s
   24    -472.8381710708      8.50e-06  
Finding J and K together
 Job number = 22, Threshold = 1.00E-11
Integral type ranges set in mkLRange.C for JobNum: 22  <1-21|1-21>
 MakeJK  time:  CPU       3.92 s  wall       3.92 s
   25    -472.8381700976      5.35e-05  
Finding J and K together
 Job number = 22, Threshold = 1.00E-11
Integral type ranges set in mkLRange.C for JobNum: 22  <1-21|1-21>
 MakeJK  time:  CPU       3.91 s  wall       3.92 s
   26    -472.8381745284      4.46e-05  
Finding J and K together
 Job number = 22, Threshold = 1.00E-11
Integral type ranges set in mkLRange.C for JobNum: 22  <1-21|1-21>
 MakeJK  time:  CPU       3.92 s  wall       3.92 s
   27    -472.8381798566      2.15e-05  
Finding J and K together
 Job number = 22, Threshold = 1.00E-11
Integral type ranges set in mkLRange.C for JobNum: 22  <1-21|1-21>
 MakeJK  time:  CPU       4.13 s  wall       4.13 s
   28    -472.8381757936      4.78e-05  
Finding J and K together
 Job number = 22, Threshold = 1.00E-11
Integral type ranges set in mkLRange.C for JobNum: 22  <1-21|1-21>
 MakeJK  time:  CPU       3.92 s  wall       3.92 s
   29    -472.8381781659      4.25e-05  
Finding J and K together
 Job number = 22, Threshold = 1.00E-11
Integral type ranges set in mkLRange.C for JobNum: 22  <1-21|1-21>
 MakeJK  time:  CPU       3.99 s  wall       3.99 s
   30    -472.8381786048      4.18e-05  
Finding J and K together
 Job number = 22, Threshold = 1.00E-11
Integral type ranges set in mkLRange.C for JobNum: 22  <1-21|1-21>
 MakeJK  time:  CPU       3.99 s  wall       4.00 s
   31    -472.8381805072      3.60e-05  
Finding J and K together
 Job number = 22, Threshold = 1.00E-11
Integral type ranges set in mkLRange.C for JobNum: 22  <1-21|1-21>
 MakeJK  time:  CPU       3.92 s  wall       3.92 s
   32    -472.8381824707      2.60e-05  
Finding J and K together
 Job number = 22, Threshold = 1.00E-11
Integral type ranges set in mkLRange.C for JobNum: 22  <1-21|1-21>
 MakeJK  time:  CPU       3.92 s  wall       3.93 s
   33    -472.8381844316      1.15e-05  
Finding J and K together
 Job number = 22, Threshold = 1.00E-11
Integral type ranges set in mkLRange.C for JobNum: 22  <1-21|1-21>
 MakeJK  time:  CPU       3.93 s  wall       3.93 s
   34    -472.8381852372      3.31e-06  
Finding J and K together
 Job number = 22, Threshold = 1.00E-11
Integral type ranges set in mkLRange.C for JobNum: 22  <1-21|1-21>
 MakeJK  time:  CPU       3.92 s  wall       3.92 s
   35    -472.8381858187      1.83e-06  
Finding J and K together
 Job number = 22, Threshold = 1.00E-11
Integral type ranges set in mkLRange.C for JobNum: 22  <1-21|1-21>
 MakeJK  time:  CPU       3.92 s  wall       3.92 s
   36    -472.8381861317      4.84e-06  
Finding J and K together
 Job number = 22, Threshold = 1.00E-11
Integral type ranges set in mkLRange.C for JobNum: 22  <1-21|1-21>
 MakeJK  time:  CPU       3.92 s  wall       3.92 s
   37    -472.8381863744      1.03e-06  
Finding J and K together
 Job number = 22, Threshold = 1.00E-11
Integral type ranges set in mkLRange.C for JobNum: 22  <1-21|1-21>
 MakeJK  time:  CPU       3.91 s  wall       3.92 s
   38    -472.8381864562      9.60e-07  
Finding J and K together
 Job number = 22, Threshold = 1.00E-11
Integral type ranges set in mkLRange.C for JobNum: 22  <1-21|1-21>
 MakeJK  time:  CPU       3.92 s  wall       3.92 s
   39    -472.8381864672      3.50e-07  
Finding J and K together
 Job number = 22, Threshold = 1.00E-11
Integral type ranges set in mkLRange.C for JobNum: 22  <1-21|1-21>
 MakeJK  time:  CPU       3.92 s  wall       3.92 s
   40    -472.8381864717      3.00e-07  
Finding J and K together
 Job number = 22, Threshold = 1.00E-11
Integral type ranges set in mkLRange.C for JobNum: 22  <1-21|1-21>
 MakeJK  time:  CPU       3.92 s  wall       3.92 s
   41    -472.8381864746      1.35e-07  
Finding J and K together
 Job number = 22, Threshold = 1.00E-11
Integral type ranges set in mkLRange.C for JobNum: 22  <1-21|1-21>
 MakeJK  time:  CPU       3.92 s  wall       3.92 s
   42    -472.8381864749      1.37e-07  
Finding J and K together
 Job number = 22, Threshold = 1.00E-11
Integral type ranges set in mkLRange.C for JobNum: 22  <1-21|1-21>
 MakeJK  time:  CPU       4.01 s  wall       4.02 s
   43    -472.8381864765      7.20e-08  
Finding J and K together
 Job number = 22, Threshold = 1.00E-11
Integral type ranges set in mkLRange.C for JobNum: 22  <1-21|1-21>
 MakeJK  time:  CPU       3.92 s  wall       3.92 s
   44    -472.8381864769      4.82e-08  
Finding J and K together
 Job number = 22, Threshold = 1.00E-11
Integral type ranges set in mkLRange.C for JobNum: 22  <1-21|1-21>
 MakeJK  time:  CPU       3.94 s  wall       3.94 s
   45    -472.8381864771      3.83e-08  
Finding J and K together
 Job number = 22, Threshold = 1.00E-11
Integral type ranges set in mkLRange.C for JobNum: 22  <1-21|1-21>
 MakeJK  time:  CPU       4.02 s  wall       4.02 s
   46    -472.8381864771      1.39e-08  
   47    -472.8381864771      7.85e-09  Convergence criterion met
 ---------------------------------------
 SCF time:   CPU 183.97s  wall 184.00s 
 Total energy in the final basis set =     -472.8381864771
Wall  1 = 184
Clock 1 = 183.9742126465
 ==================================================
                  Done GEN_SCFMAN                  
 ==================================================

Symmetry turned off temporarily

 --------------------------------------------------------------

                    Orbital Energies (a.u.)
 --------------------------------------------------------------

 Alpha MOs
 -- Occupied --
 -4.414  -4.413  -4.413  -4.318  -2.497  -2.489  -2.489  -2.480
 -2.480  -2.478  -2.475  -2.474  -2.474  -2.400  -2.391  -2.391
 -0.484  -0.437  -0.411  -0.411  -0.402  -0.384  -0.384  -0.374
 -0.374  -0.352  -0.352  -0.352  -0.340  -0.340  -0.324  -0.287
 -0.287  -0.286  -0.250  -0.250
 -- Virtual --
 -0.015  -0.003  -0.003   0.015   0.052   0.072   0.072   0.079
  0.084   0.084   0.118   0.119   0.119   0.124   0.124   0.140
  0.202   0.233   0.233   0.242   0.263   0.263   0.390   0.405
  0.405   0.501   0.501   0.508   0.552   0.561   0.561   0.589
  0.650   0.650   0.653   0.676   0.676   0.759   0.759   0.763
  0.781   0.781   0.832   0.832   0.840   0.857   0.858   0.858
  4.233   6.007   6.007   6.037
 --------------------------------------------------------------

          Ground-State Mulliken Net Atomic Charges

     Atom                 Charge (a.u.)
  ----------------------------------------
      1 Pt                   -0.041042
      2 Pt                    0.013683
      3 Pt                    0.013679
      4 Pt                    0.013681
  ----------------------------------------
  Sum of atomic charges =     0.000000

 -----------------------------------------------------------------
                    Cartesian Multipole Moments
 -----------------------------------------------------------------
    Charge (ESU x 10^10)
                -0.0000
    Dipole Moment (Debye)
         X       1.3114      Y      -0.3154      Z      -0.4919
       Tot       1.4357
    Quadrupole Moments (Debye-Ang)
        XX     -89.6425     XY       4.5474     YY     -83.6741
        XZ       2.3563     YZ      -1.5770     ZZ     -82.6157
    Octopole Moments (Debye-Ang^2)
       XXX      80.0626    XXY    -185.3674    XYY      49.5915
       YYY    -536.2479    XXZ      31.2504    XYZ       4.0006
       YYZ      26.8531    XZZ      25.1462    YZZ    -177.8451
       ZZZ      55.2411
    Hexadecapole Moments (Debye-Ang^3)
      XXXX    -636.0581   XXXY     168.3586   XXYY    -587.2612
      XYYY     276.5055   YYYY   -2855.3861   XXXZ     -31.2226
      XXYZ      70.4958   XYYZ       3.6209   YYYZ     181.1062
      XXZZ    -216.6388   XYZZ      55.2154   YYZZ    -584.2946
      XZZZ      -7.7559   YZZZ     118.9905   ZZZZ    -570.4296
 -----------------------------------------------------------------
drvman_main.C: 73: calling DrvMan  Calculating analytic gradient of the SCF energy
drvman.C : 218: Calculating analytic gradient of the SCF energy
drvman.C: 244: calling SCF_Grad for normal SCF gradient
 Job number = 111, Threshold = 1.00E-11
Integral type ranges set in mkLRange.C for JobNum: 11  <1-21|40-40>
Finding J and K together
 ML is being used
 Job number = 122, Threshold = 1.00E-11
Integral type ranges set in mkLRange.C for JobNum: 22  <1-21|1-21>
Total number of integrals generated =        11616726
 MakeJK  time:  CPU      10.19 s  wall      10.18 s
 Gradient of SCF Energy
            1           2           3           4
    1   0.0223475  -0.0077435   0.0068067  -0.0214107
    2  -0.0053736  -0.0322668   0.0353831   0.0022574
    3  -0.0083820   0.0238432   0.0192669  -0.0347281
 Max gradient component =       3.538E-02
 RMS gradient           =       2.162E-02
drvman.C: 248: out of SCF_Grad for normal SCF gradient
 Gradient time:  CPU 26.42 s  wall 26.41 s
 ------------------------------------------------------------------------------
                     drvman        : Timing summary (seconds)
 ------------------------------------------------------------------------------
     job step          cpu (% of tot)      sys (% of tot)     wall (% of tot)
 ------------------------------------------------------------------------------
 ------------------------------------------------------------------------------
   Grand Totals     0.2642E+02          0.1200E-04          0.2641E+02
 ------------------------------------------------------------------------------
drvman_main.C: 77: out of DrvMan =======================================================
            AB INITIO MOLECULAR DYNAMICS
=======================================================
Created directory /home/jcartus/scratch/qchem24630/AIMD
AIMD will take 200 BOMD steps Velocity Verlet integration
Time step = 20.00000 a.u. ( = 0.48378 fs)
Total simulation time requested = 96.755 fs
Integral threshold = 10**(-11)
SCF convergence threshold = 10**(-8)
Generating viewable xyz trajectory,
 file (in Angstroms) at AIMD/View.xyz
Choosing nuclear velocities from Maxwell-Boltzmann
Velocities sampled from Maxwell-Boltzmann at T = 700.0 K
sqrt(kT/m) and (vx,vy,vz) for each atom:
  1   7.8977e-05   7.20e-05   5.37e-05   1.30e-04 
  2   7.8977e-05   7.03e-05   7.49e-05   1.21e-05 
  3   7.8977e-05  -8.98e-05  -5.64e-05   3.46e-05 
  4   7.8977e-05  -4.53e-05  -6.53e-05   3.26e-06 
T(nuclear) = 0.00966453 a.u.
v(c.o.m.) = (  1.8151e-06,   1.7211e-06,   4.4935e-05)
T(c.o.m.) = 1.43969e-03 a.u.
kT/2 = 0.001108 a.u.
Tx   = 0.003598 a.u.
Ty   = 0.002834 a.u.
Tz   = 0.003233 a.u.
Mean velocities (a.u.):   1.8151e-06   1.7211e-06   4.4935e-05
Removing c.o.m. velocity
T(nuclear) = 0.00822484 a.u.
v(c.o.m.) = ( -2.4991e-21,   0.0000e+00,  -3.7487e-21)
T(c.o.m.) = 1.44277e-35 a.u.
kT   = 0.002217 a.u. = 1.39 kcal/mol
Tx   = 0.003596 a.u. = 2.26 kcal/mol
Ty   = 0.002832 a.u. = 1.78 kcal/mol
Tz   = 0.001797 a.u. = 1.13 kcal/mol
Initial velocities in m/s
  1      1.5356e+02      1.1370e+02      1.8555e+02 
  2      1.4992e+02      1.6015e+02     -7.1828e+01 
  3     -2.0044e+02     -1.2725e+02     -2.2540e+01 
  4     -1.0304e+02     -1.4660e+02     -9.1178e+01 
----------------------------------------------------------------------------
       Nuclear coordinates (Angst) and velocities (a.u.)
----------------------------------------------------------------------------
             x        y        z            v_x         v_y        v_z
----------------------------------------------------------------------------
1     Pt   -1.8400   2.4964   0.2818     7.0194e-05   5.1972e-05   8.4814e-05
2     Pt    0.1830   0.6674   0.3467     6.8528e-05   7.3207e-05  -3.2833e-05
3     Pt    0.7554   3.3286   0.1667    -9.1621e-05  -5.8165e-05  -1.0303e-05
4     Pt   -0.3546   2.0255  -1.9573    -4.7101e-05  -6.7013e-05  -4.1678e-05
----------------------------------------------------------------------------
Write nuclear velocities every 1 time steps

TIME STEP #1 (t = 0.000 a.u. = 0.00000 fs)
--------------------------------------
 Instantaneous Temperature = 432.9 K
 ----------------------------------------------------------------
             Standard Nuclear Orientation (Angstroms)
    I     Atom           X                Y                Z
 ----------------------------------------------------------------
    1      Pt     -1.8392637539     2.4969316464     0.2827401257
    2      Pt      0.1837375768     0.6681743962     0.3463454124
    3      Pt      0.7544382944     3.3279538691     0.1666152174
    4      Pt     -0.3551221174     2.0247400883    -1.9577607555
 ----------------------------------------------------------------
 Nuclear Repulsion Energy =   377.1801273643 hartrees
 There are       36 alpha and       36 beta electrons

                       Distance Matrix (Angstroms)
             Pt(  1)   Pt(  2)   Pt(  3)
   Pt(  2)  2.727807
   Pt(  3)  2.726055  2.726248
   Pt(  4)  2.728642  2.727553  2.728088

 Applying Cartesian multipole field
    Component          Value
    ---------          -----
     (2,0,0)        1.00000E-11
     (0,2,0)        2.00000E-11
     (0,0,2)       -3.00000E-11
 Nucleus-field energy     =     0.0000000229 hartrees
 ENuRep (before)= 377.1801273643
 ENucField = 0.0000000229
 ENuRep (after) = 377.1801273872
 Job number = 2, Threshold = 1.00E-11
Integral type ranges set in mkLRange.C for JobNum: 2  <1-21|1-21>
Symmetry turned off temporarily
Symmetry turned back on
 Job number = 2, Threshold = 1.00E-11
Integral type ranges set in mkLRange.C for JobNum: 2  <1-21|1-21>
Symmetry turned off temporarily
Symmetry turned back on
Integral type ranges set in mkLRange.C for JobNum: 18  <1-21|22-39>
Integral type ranges set in mkLRange.C for JobNum: 18  <1-21|22-39>
 Job number = 11, Threshold = 1.00E-11
Integral type ranges set in mkLRange.C for JobNum: 11  <1-21|40-40>
 Smallest overlap matrix eigenvalue = 3.41E-03
 Multipole matrices computed through 2nd order
 Guess from superposition of atomic densities
 Warning:  Energy on first SCF cycle will be non-variational
 SAD guess density has 72.000000 electrons
 SCF convergence criterion is 10**(-8)
 A restricted Hartree-Fock SCF calculation will be
 performed using Pulay DIIS extrapolation
 SCF converges when DIIS error is below 1.0E-08
Using Integral Screening
Finding J and K together
 ML is being used
 Job number = 22, Threshold = 1.00E-11
Integral type ranges set in mkLRange.C for JobNum: 22  <1-21|1-21>
 MakeJK  time:  CPU       2.14 s  wall       2.14 s
Fock build time:  2.14 s (CPU) 2.14 s (wall)
DIIS Errors:  Max 2.94E-01 RMS 3.24E-02

Current DIIS subspace size = 1
REM_GRID_RESTART_DIIS = 0

 ---------------------------------------
  Cycle       Energy         DIIS Error
 ---------------------------------------
    1    -472.5955693042      3.24E-02  00000
Ite = 2 IFIte = 1 Thresh = 1.00e-11
Finding J and K together
 Job number = 22, Threshold = 1.00E-11
Integral type ranges set in mkLRange.C for JobNum: 22  <1-21|1-21>
 MakeJK  time:  CPU       4.05 s  wall       4.05 s
Fock build time:  4.05 s (CPU) 4.05 s (wall)
DIIS Errors:  Max 1.15E-01 RMS 5.98E-03

Current DIIS subspace size = 2
REM_GRID_RESTART_DIIS = 0

    2    -472.7696348749      5.98E-03  00000
Ite = 3 IFIte = 2 Thresh = 1.00e-11
Using dP: JK
Finding J and K together
 ML is being used
 Job number = 22, Threshold = 1.00E-11
Integral type ranges set in mkLRange.C for JobNum: 22  <1-21|1-21>
 MakeJK  time:  CPU       4.05 s  wall       4.06 s
Fock build time:  4.05 s (CPU) 4.06 s (wall)
DIIS Errors:  Max 1.58E-01 RMS 7.63E-03

Current DIIS subspace size = 3
REM_GRID_RESTART_DIIS = 0

    3    -472.7648233338      7.63E-03  00000
Ite = 4 IFIte = 3 Thresh = 1.00e-11
Using dP: JK
Finding J and K together
 ML is being used
 Job number = 22, Threshold = 1.00E-11
Integral type ranges set in mkLRange.C for JobNum: 22  <1-21|1-21>
 MakeJK  time:  CPU       4.05 s  wall       4.05 s
Fock build time:  4.05 s (CPU) 4.05 s (wall)
DIIS Errors:  Max 9.55E-03 RMS 9.80E-04

Current DIIS subspace size = 4
REM_GRID_RESTART_DIIS = 0

    4    -472.8308975706      9.80E-04  00000
Ite = 5 IFIte = 4 Thresh = 1.00e-11
Using dP: JK
Finding J and K together
 ML is being used
 Job number = 22, Threshold = 1.00E-11
Integral type ranges set in mkLRange.C for JobNum: 22  <1-21|1-21>
 MakeJK  time:  CPU       4.14 s  wall       4.14 s
Fock build time:  4.14 s (CPU) 4.14 s (wall)
DIIS Errors:  Max 8.14E-03 RMS 6.47E-04

Current DIIS subspace size = 5
REM_GRID_RESTART_DIIS = 0

    5    -472.8345137935      6.47E-04  00000
Ite = 6 IFIte = 5 Thresh = 1.00e-11
Using dP: JK
Finding J and K together
 ML is being used
 Job number = 22, Threshold = 1.00E-11
Integral type ranges set in mkLRange.C for JobNum: 22  <1-21|1-21>
 MakeJK  time:  CPU       4.11 s  wall       4.12 s
Fock build time:  4.11 s (CPU) 4.12 s (wall)
DIIS Errors:  Max 4.53E-03 RMS 4.16E-04

Current DIIS subspace size = 6
REM_GRID_RESTART_DIIS = 0

    6    -472.8360163868      4.16E-04  00000
Ite = 7 IFIte = 6 Thresh = 1.00e-11
Using dP: JK
Finding J and K together
 ML is being used
 Job number = 22, Threshold = 1.00E-11
Integral type ranges set in mkLRange.C for JobNum: 22  <1-21|1-21>
 MakeJK  time:  CPU       4.04 s  wall       4.04 s
Fock build time:  4.04 s (CPU) 4.04 s (wall)
DIIS Errors:  Max 3.29E-03 RMS 2.14E-04

Current DIIS subspace size = 7
REM_GRID_RESTART_DIIS = 0

    7    -472.8366586682      2.14E-04  00000
Ite = 8 IFIte = 7 Thresh = 1.00e-11
Using dP: JK
Finding J and K together
 ML is being used
 Job number = 22, Threshold = 1.00E-11
Integral type ranges set in mkLRange.C for JobNum: 22  <1-21|1-21>
 MakeJK  time:  CPU       4.13 s  wall       4.13 s
Fock build time:  4.13 s (CPU) 4.13 s (wall)
DIIS Errors:  Max 1.11E-03 RMS 1.09E-04

Current DIIS subspace size = 8
REM_GRID_RESTART_DIIS = 0

    8    -472.8370929536      1.09E-04  00000
Ite = 9 IFIte = 8 Thresh = 1.00e-11
Using dP: JK
Finding J and K together
 ML is being used
 Job number = 22, Threshold = 1.00E-11
Integral type ranges set in mkLRange.C for JobNum: 22  <1-21|1-21>
 MakeJK  time:  CPU       4.06 s  wall       4.07 s
Fock build time:  4.06 s (CPU) 4.07 s (wall)
DIIS Errors:  Max 8.98E-04 RMS 7.69E-05

Current DIIS subspace size = 9
REM_GRID_RESTART_DIIS = 0

    9    -472.8373273108      7.69E-05  00000
Ite = 10 IFIte = 9 Thresh = 1.00e-11
Using dP: JK
Finding J and K together
 ML is being used
 Job number = 22, Threshold = 1.00E-11
Integral type ranges set in mkLRange.C for JobNum: 22  <1-21|1-21>
 MakeJK  time:  CPU       4.02 s  wall       4.02 s
Fock build time:  4.02 s (CPU) 4.02 s (wall)
DIIS Errors:  Max 8.10E-04 RMS 7.09E-05

Current DIIS subspace size = 10
REM_GRID_RESTART_DIIS = 0

   10    -472.8374360524      7.09E-05  00000
Ite = 11 IFIte = 10 Thresh = 1.00e-11
Using dP: JK
Finding J and K together
 ML is being used
 Job number = 22, Threshold = 1.00E-11
Integral type ranges set in mkLRange.C for JobNum: 22  <1-21|1-21>
 MakeJK  time:  CPU       4.05 s  wall       4.05 s
Fock build time:  4.05 s (CPU) 4.05 s (wall)
DIIS Errors:  Max 7.44E-04 RMS 6.27E-05

Current DIIS subspace size = 11
REM_GRID_RESTART_DIIS = 0

   11    -472.8375030203      6.27E-05  00000
Ite = 12 IFIte = 11 Thresh = 1.00e-11
Using dP: JK
Finding J and K together
 ML is being used
 Job number = 22, Threshold = 1.00E-11
Integral type ranges set in mkLRange.C for JobNum: 22  <1-21|1-21>
 MakeJK  time:  CPU       4.03 s  wall       4.04 s
Fock build time:  4.03 s (CPU) 4.04 s (wall)
DIIS Errors:  Max 6.54E-04 RMS 5.37E-05

Current DIIS subspace size = 12
REM_GRID_RESTART_DIIS = 0

   12    -472.8376408874      5.37E-05  00000
Ite = 13 IFIte = 12 Thresh = 1.00e-11
Using dP: JK
Finding J and K together
 ML is being used
 Job number = 22, Threshold = 1.00E-11
Integral type ranges set in mkLRange.C for JobNum: 22  <1-21|1-21>
 MakeJK  time:  CPU       4.02 s  wall       4.03 s
Fock build time:  4.03 s (CPU) 4.03 s (wall)
DIIS Errors:  Max 5.64E-04 RMS 4.65E-05

Current DIIS subspace size = 13
REM_GRID_RESTART_DIIS = 0

   13    -472.8378001711      4.65E-05  00000
Ite = 14 IFIte = 13 Thresh = 1.00e-11
Using dP: JK
Finding J and K together
 ML is being used
 Job number = 22, Threshold = 1.00E-11
Integral type ranges set in mkLRange.C for JobNum: 22  <1-21|1-21>
 MakeJK  time:  CPU       4.05 s  wall       4.06 s
Fock build time:  4.05 s (CPU) 4.06 s (wall)
DIIS Errors:  Max 5.25E-04 RMS 4.30E-05

Current DIIS subspace size = 14
REM_GRID_RESTART_DIIS = 0

   14    -472.8379081288      4.30E-05  00000
Ite = 15 IFIte = 14 Thresh = 1.00e-11
Using dP: JK
Finding J and K together
 ML is being used
 Job number = 22, Threshold = 1.00E-11
Integral type ranges set in mkLRange.C for JobNum: 22  <1-21|1-21>
 MakeJK  time:  CPU       4.06 s  wall       4.06 s
Fock build time:  4.06 s (CPU) 4.06 s (wall)
DIIS Errors:  Max 4.62E-04 RMS 3.86E-05

Current DIIS subspace size = 15
REM_GRID_RESTART_DIIS = 0

   15    -472.8380492517      3.86E-05  00000
Ite = 16 IFIte = 0 Thresh = 1.00e-11
Finding J and K together
 Job number = 22, Threshold = 1.00E-11
Integral type ranges set in mkLRange.C for JobNum: 22  <1-21|1-21>
 MakeJK  time:  CPU       4.06 s  wall       4.06 s
Fock build time:  4.06 s (CPU) 4.06 s (wall)
DIIS Errors:  Max 4.94E-04 RMS 3.70E-05

Current DIIS subspace size = 15
REM_GRID_RESTART_DIIS = 0

   16    -472.8381981806      3.70E-05  00000
Ite = 17 IFIte = 1 Thresh = 1.00e-11
Using dP: JK
Finding J and K together
 ML is being used
 Job number = 22, Threshold = 1.00E-11
Integral type ranges set in mkLRange.C for JobNum: 22  <1-21|1-21>
 MakeJK  time:  CPU       4.05 s  wall       4.05 s
Fock build time:  4.05 s (CPU) 4.05 s (wall)
DIIS Errors:  Max 2.45E-04 RMS 2.40E-05

Current DIIS subspace size = 15
REM_GRID_RESTART_DIIS = 0

   17    -472.8382836075      2.40E-05  00000
Ite = 18 IFIte = 2 Thresh = 1.00e-11
Using dP: JK
Finding J and K together
 ML is being used
 Job number = 22, Threshold = 1.00E-11
Integral type ranges set in mkLRange.C for JobNum: 22  <1-21|1-21>
 MakeJK  time:  CPU       4.04 s  wall       4.05 s
Fock build time:  4.04 s (CPU) 4.05 s (wall)
DIIS Errors:  Max 1.01E-03 RMS 6.33E-05

Current DIIS subspace size = 15
REM_GRID_RESTART_DIIS = 0

   18    -472.8383577121      6.33E-05  00000
Ite = 19 IFIte = 3 Thresh = 1.00e-11
Using dP: JK
Finding J and K together
 ML is being used
 Job number = 22, Threshold = 1.00E-11
Integral type ranges set in mkLRange.C for JobNum: 22  <1-21|1-21>
 MakeJK  time:  CPU       4.04 s  wall       4.04 s
Fock build time:  4.04 s (CPU) 4.04 s (wall)
DIIS Errors:  Max 2.50E-04 RMS 1.79E-05

Current DIIS subspace size = 15
REM_GRID_RESTART_DIIS = 0

   19    -472.8383633718      1.79E-05  00000
Ite = 20 IFIte = 4 Thresh = 1.00e-11
Using dP: JK
Finding J and K together
 ML is being used
 Job number = 22, Threshold = 1.00E-11
Integral type ranges set in mkLRange.C for JobNum: 22  <1-21|1-21>
 MakeJK  time:  CPU       4.10 s  wall       4.10 s
Fock build time:  4.10 s (CPU) 4.10 s (wall)
DIIS Errors:  Max 5.12E-04 RMS 3.20E-05

Current DIIS subspace size = 15
REM_GRID_RESTART_DIIS = 0

   20    -472.8383800036      3.20E-05  00000
Ite = 21 IFIte = 5 Thresh = 1.00e-11
Using dP: JK
Finding J and K together
 ML is being used
 Job number = 22, Threshold = 1.00E-11
Integral type ranges set in mkLRange.C for JobNum: 22  <1-21|1-21>
 MakeJK  time:  CPU       4.04 s  wall       4.04 s
Fock build time:  4.04 s (CPU) 4.04 s (wall)
DIIS Errors:  Max 1.44E-04 RMS 9.29E-06

Current DIIS subspace size = 15
REM_GRID_RESTART_DIIS = 0

   21    -472.8383836288      9.29E-06  00000
Ite = 22 IFIte = 6 Thresh = 1.00e-11
Using dP: JK
Finding J and K together
 ML is being used
 Job number = 22, Threshold = 1.00E-11
Integral type ranges set in mkLRange.C for JobNum: 22  <1-21|1-21>
 MakeJK  time:  CPU       4.09 s  wall       4.09 s
Fock build time:  4.09 s (CPU) 4.09 s (wall)
DIIS Errors:  Max 4.30E-05 RMS 3.47E-06

Current DIIS subspace size = 15
REM_GRID_RESTART_DIIS = 0

   22    -472.8383848124      3.47E-06  00000
Ite = 23 IFIte = 7 Thresh = 1.00e-11
Using dP: JK
Finding J and K together
 ML is being used
 Job number = 22, Threshold = 1.00E-11
Integral type ranges set in mkLRange.C for JobNum: 22  <1-21|1-21>
 MakeJK  time:  CPU       4.12 s  wall       4.13 s
Fock build time:  4.12 s (CPU) 4.13 s (wall)
DIIS Errors:  Max 7.66E-05 RMS 5.64E-06

Current DIIS subspace size = 15
REM_GRID_RESTART_DIIS = 0

   23    -472.8383851901      5.64E-06  00000
Ite = 24 IFIte = 8 Thresh = 1.00e-11
Using dP: JK
Finding J and K together
 ML is being used
 Job number = 22, Threshold = 1.00E-11
Integral type ranges set in mkLRange.C for JobNum: 22  <1-21|1-21>
 MakeJK  time:  CPU       4.06 s  wall       4.07 s
Fock build time:  4.06 s (CPU) 4.07 s (wall)
DIIS Errors:  Max 5.70E-05 RMS 4.24E-06

Current DIIS subspace size = 15
REM_GRID_RESTART_DIIS = 0

   24    -472.8383853753      4.24E-06  00000
Ite = 25 IFIte = 9 Thresh = 1.00e-11
Using dP: JK
Finding J and K together
 ML is being used
 Job number = 22, Threshold = 1.00E-11
Integral type ranges set in mkLRange.C for JobNum: 22  <1-21|1-21>
 MakeJK  time:  CPU       4.05 s  wall       4.05 s
Fock build time:  4.05 s (CPU) 4.05 s (wall)
DIIS Errors:  Max 2.22E-05 RMS 2.07E-06

Current DIIS subspace size = 15
REM_GRID_RESTART_DIIS = 0

   25    -472.8383854896      2.07E-06  00000
Ite = 26 IFIte = 10 Thresh = 1.00e-11
Using dP: JK
Finding J and K together
 ML is being used
 Job number = 22, Threshold = 1.00E-11
Integral type ranges set in mkLRange.C for JobNum: 22  <1-21|1-21>
 MakeJK  time:  CPU       4.04 s  wall       4.05 s
Fock build time:  4.04 s (CPU) 4.05 s (wall)
DIIS Errors:  Max 1.98E-05 RMS 1.88E-06

Current DIIS subspace size = 15
REM_GRID_RESTART_DIIS = 0

   26    -472.8383855562      1.88E-06  00000
Ite = 27 IFIte = 11 Thresh = 1.00e-11
Using dP: JK
Finding J and K together
 ML is being used
 Job number = 22, Threshold = 1.00E-11
Integral type ranges set in mkLRange.C for JobNum: 22  <1-21|1-21>
 MakeJK  time:  CPU       4.06 s  wall       4.06 s
Fock build time:  4.06 s (CPU) 4.06 s (wall)
DIIS Errors:  Max 3.16E-05 RMS 2.32E-06

Current DIIS subspace size = 15
REM_GRID_RESTART_DIIS = 0

   27    -472.8383855968      2.32E-06  00000
Ite = 28 IFIte = 12 Thresh = 1.00e-11
Using dP: JK
Finding J and K together
 ML is being used
 Job number = 22, Threshold = 1.00E-11
Integral type ranges set in mkLRange.C for JobNum: 22  <1-21|1-21>
 MakeJK  time:  CPU       4.06 s  wall       4.06 s
Fock build time:  4.06 s (CPU) 4.06 s (wall)
DIIS Errors:  Max 1.44E-05 RMS 1.16E-06

Current DIIS subspace size = 15
REM_GRID_RESTART_DIIS = 0

   28    -472.8383856557      1.16E-06  00000
Ite = 29 IFIte = 13 Thresh = 1.00e-11
Using dP: JK
Finding J and K together
 ML is being used
 Job number = 22, Threshold = 1.00E-11
Integral type ranges set in mkLRange.C for JobNum: 22  <1-21|1-21>
 MakeJK  time:  CPU       4.06 s  wall       4.06 s
Fock build time:  4.06 s (CPU) 4.06 s (wall)
DIIS Errors:  Max 1.32E-05 RMS 1.01E-06

Current DIIS subspace size = 15
REM_GRID_RESTART_DIIS = 0

   29    -472.8383857042      1.01E-06  00000
Ite = 30 IFIte = 14 Thresh = 1.00e-11
Using dP: JK
Finding J and K together
 ML is being used
 Job number = 22, Threshold = 1.00E-11
Integral type ranges set in mkLRange.C for JobNum: 22  <1-21|1-21>
 MakeJK  time:  CPU       4.05 s  wall       4.05 s
Fock build time:  4.05 s (CPU) 4.05 s (wall)
DIIS Errors:  Max 1.17E-05 RMS 9.06E-07

Current DIIS subspace size = 15
REM_GRID_RESTART_DIIS = 0

   30    -472.8383857592      9.06E-07  00000
Ite = 31 IFIte = 0 Thresh = 1.00e-11
Finding J and K together
 Job number = 22, Threshold = 1.00E-11
Integral type ranges set in mkLRange.C for JobNum: 22  <1-21|1-21>
 MakeJK  time:  CPU       3.94 s  wall       3.94 s
Fock build time:  3.94 s (CPU) 3.94 s (wall)
DIIS Errors:  Max 8.75E-06 RMS 8.71E-07

Current DIIS subspace size = 15
REM_GRID_RESTART_DIIS = 0

   31    -472.8383858546      8.71E-07  00000
Ite = 32 IFIte = 1 Thresh = 1.00e-11
Using dP: JK
Finding J and K together
 ML is being used
 Job number = 22, Threshold = 1.00E-11
Integral type ranges set in mkLRange.C for JobNum: 22  <1-21|1-21>
 MakeJK  time:  CPU       3.92 s  wall       3.93 s
Fock build time:  3.92 s (CPU) 3.93 s (wall)
DIIS Errors:  Max 7.09E-06 RMS 5.75E-07

Current DIIS subspace size = 15
REM_GRID_RESTART_DIIS = 0

   32    -472.8383859435      5.75E-07  00000
Ite = 33 IFIte = 2 Thresh = 1.00e-11
Using dP: JK
Finding J and K together
 ML is being used
 Job number = 22, Threshold = 1.00E-11
Integral type ranges set in mkLRange.C for JobNum: 22  <1-21|1-21>
 MakeJK  time:  CPU       3.92 s  wall       3.92 s
Fock build time:  3.92 s (CPU) 3.92 s (wall)
DIIS Errors:  Max 3.12E-06 RMS 2.45E-07

Current DIIS subspace size = 15
REM_GRID_RESTART_DIIS = 0

   33    -472.8383859707      2.45E-07  00000
Ite = 34 IFIte = 3 Thresh = 1.00e-11
Using dP: JK
Finding J and K together
 ML is being used
 Job number = 22, Threshold = 1.00E-11
Integral type ranges set in mkLRange.C for JobNum: 22  <1-21|1-21>
 MakeJK  time:  CPU       3.91 s  wall       3.92 s
Fock build time:  3.91 s (CPU) 3.92 s (wall)
DIIS Errors:  Max 2.14E-06 RMS 1.77E-07

Current DIIS subspace size = 15
REM_GRID_RESTART_DIIS = 0

   34    -472.8383859749      1.77E-07  00000
Ite = 35 IFIte = 4 Thresh = 1.00e-11
Using dP: JK
Finding J and K together
 ML is being used
 Job number = 22, Threshold = 1.00E-11
Integral type ranges set in mkLRange.C for JobNum: 22  <1-21|1-21>
 MakeJK  time:  CPU       4.04 s  wall       4.05 s
Fock build time:  4.04 s (CPU) 4.05 s (wall)
DIIS Errors:  Max 1.29E-06 RMS 1.08E-07

Current DIIS subspace size = 15
REM_GRID_RESTART_DIIS = 0

   35    -472.8383859762      1.08E-07  00000
Ite = 36 IFIte = 5 Thresh = 1.00e-11
Using dP: JK
Finding J and K together
 ML is being used
 Job number = 22, Threshold = 1.00E-11
Integral type ranges set in mkLRange.C for JobNum: 22  <1-21|1-21>
 MakeJK  time:  CPU       3.90 s  wall       3.90 s
Fock build time:  3.90 s (CPU) 3.90 s (wall)
DIIS Errors:  Max 6.01E-07 RMS 6.06E-08

Current DIIS subspace size = 15
REM_GRID_RESTART_DIIS = 0

   36    -472.8383859768      6.06E-08  00000
Ite = 37 IFIte = 6 Thresh = 1.00e-11
Using dP: JK
Finding J and K together
 ML is being used
 Job number = 22, Threshold = 1.00E-11
Integral type ranges set in mkLRange.C for JobNum: 22  <1-21|1-21>
 MakeJK  time:  CPU       4.47 s  wall       4.47 s
Fock build time:  4.47 s (CPU) 4.47 s (wall)
DIIS Errors:  Max 2.82E-07 RMS 3.00E-08

Current DIIS subspace size = 15
REM_GRID_RESTART_DIIS = 0

   37    -472.8383859770      3.00E-08  00000
Ite = 38 IFIte = 7 Thresh = 1.00e-11
Using dP: JK
Finding J and K together
 ML is being used
 Job number = 22, Threshold = 1.00E-11
Integral type ranges set in mkLRange.C for JobNum: 22  <1-21|1-21>
 MakeJK  time:  CPU       4.72 s  wall       4.73 s
Fock build time:  4.72 s (CPU) 4.73 s (wall)
DIIS Errors:  Max 1.61E-07 RMS 1.82E-08

Current DIIS subspace size = 15
REM_GRID_RESTART_DIIS = 0

   38    -472.8383859770      1.82E-08  00000
Ite = 39 IFIte = 8 Thresh = 1.00e-11
Using dP: JK
Finding J and K together
 ML is being used
 Job number = 22, Threshold = 1.00E-11
Integral type ranges set in mkLRange.C for JobNum: 22  <1-21|1-21>
 MakeJK  time:  CPU       3.83 s  wall       3.83 s
Fock build time:  3.83 s (CPU) 3.83 s (wall)
DIIS Errors:  Max 8.96E-08 RMS 9.51E-09

Current DIIS subspace size = 15
REM_GRID_RESTART_DIIS = 0

   39    -472.8383859767      9.51E-09  00000 Convergence criterion met
 ---------------------------------------
 SCF time:  CPU 157.10 s  wall 157.27 s
 SCF   energy in the final basis set = -472.83838598
 Total energy in the final basis set = -472.83838598
drvman_main.C: 73: calling DrvMan  Calculating analytic gradient of the SCF energy
drvman.C : 218: Calculating analytic gradient of the SCF energy
drvman.C: 244: calling SCF_Grad for normal SCF gradient
 Job number = 111, Threshold = 1.00E-11
Integral type ranges set in mkLRange.C for JobNum: 11  <1-21|40-40>
Finding J and K together
 ML is being used
 Job number = 122, Threshold = 1.00E-11
Integral type ranges set in mkLRange.C for JobNum: 22  <1-21|1-21>
 MakeJK  time:  CPU      10.20 s  wall      10.19 s
 Gradient of SCF Energy
            1           2           3           4
    1  -0.0391730   0.0116379   0.0268407   0.0006943
    2   0.0074626  -0.0382106   0.0291648   0.0015832
    3  -0.0075966  -0.0060737  -0.0107555   0.0244258
 Max gradient component =       3.917E-02
 RMS gradient           =       2.154E-02
drvman.C: 248: out of SCF_Grad for normal SCF gradient
 Gradient time:  CPU 26.41 s  wall 26.41 s
 ------------------------------------------------------------------------------
                     drvman        : Timing summary (seconds)
 ------------------------------------------------------------------------------
     job step          cpu (% of tot)      sys (% of tot)     wall (% of tot)
 ------------------------------------------------------------------------------
 ------------------------------------------------------------------------------
   Grand Totals     0.2641E+02          0.1300E-04          0.2641E+02
 ------------------------------------------------------------------------------
drvman_main.C: 77: out of DrvMan  Time for this dynamics step: 185.7 s (CPU) 185.9 s (wall)

TIME STEP #2 (t = 20.000 a.u. = 0.48378 fs)
--------------------------------------
 Instantaneous Temperature = 440.2 K
 ----------------------------------------------------------------
             Standard Nuclear Orientation (Angstroms)
    I     Atom           X                Y                Z
 ----------------------------------------------------------------
    1      Pt     -1.8385041769     2.4974788483     0.2836447758
    2      Pt      0.1844582223     0.6689815502     0.3459944422
    3      Pt      0.7534506029     3.3273103680     0.1665068406
    4      Pt     -0.3556146483     2.0240292336    -1.9582060586
 ----------------------------------------------------------------
 Nuclear Repulsion Energy =   377.2655301447 hartrees
 There are       36 alpha and       36 beta electrons

                       Distance Matrix (Angstroms)
             Pt(  1)   Pt(  2)   Pt(  3)
   Pt(  2)  2.727575
   Pt(  3)  2.724073  2.724460
   Pt(  4)  2.729288  2.727118  2.728181

 Applying Cartesian multipole field
    Component          Value
    ---------          -----
     (2,0,0)        1.00000E-11
     (0,2,0)        2.00000E-11
     (0,0,2)       -3.00000E-11
 Nucleus-field energy     =     0.0000000229 hartrees
 ENuRep (before)= 377.2655301447
 ENucField = 0.0000000229
 ENuRep (after) = 377.2655301676
 Job number = 2, Threshold = 1.00E-11
Integral type ranges set in mkLRange.C for JobNum: 2  <1-21|1-21>
Symmetry turned off temporarily
Symmetry turned back on
 Job number = 2, Threshold = 1.00E-11
Integral type ranges set in mkLRange.C for JobNum: 2  <1-21|1-21>
Symmetry turned off temporarily
Symmetry turned back on
Integral type ranges set in mkLRange.C for JobNum: 18  <1-21|22-39>
Integral type ranges set in mkLRange.C for JobNum: 18  <1-21|22-39>
 Job number = 11, Threshold = 1.00E-11
Integral type ranges set in mkLRange.C for JobNum: 11  <1-21|40-40>
 Smallest overlap matrix eigenvalue = 3.40E-03
 Multipole matrices computed through 2nd order
 Guess from superposition of atomic densities
 Warning:  Energy on first SCF cycle will be non-variational
 SAD guess density has 72.000000 electrons
 SCF convergence criterion is 10**(-8)
 A restricted Hartree-Fock SCF calculation will be
 performed using Pulay DIIS extrapolation
 SCF converges when DIIS error is below 1.0E-08
Using Integral Screening
Finding J and K together
 ML is being used
 Job number = 22, Threshold = 1.00E-11
Integral type ranges set in mkLRange.C for JobNum: 22  <1-21|1-21>
 MakeJK  time:  CPU       2.07 s  wall       2.07 s
Fock build time:  2.07 s (CPU) 2.07 s (wall)
DIIS Errors:  Max 2.95E-01 RMS 3.25E-02

Current DIIS subspace size = 1
REM_GRID_RESTART_DIIS = 0

 ---------------------------------------
  Cycle       Energy         DIIS Error
 ---------------------------------------
    1    -472.5968965682      3.25E-02  00000
Ite = 2 IFIte = 1 Thresh = 1.00e-11
Finding J and K together
 Job number = 22, Threshold = 1.00E-11
Integral type ranges set in mkLRange.C for JobNum: 22  <1-21|1-21>
 MakeJK  time:  CPU       3.94 s  wall       3.94 s
Fock build time:  3.94 s (CPU) 3.94 s (wall)
DIIS Errors:  Max 1.15E-01 RMS 5.99E-03

Current DIIS subspace size = 2
REM_GRID_RESTART_DIIS = 0

    2    -472.7696883680      5.99E-03  00000
Ite = 3 IFIte = 2 Thresh = 1.00e-11
Using dP: JK
Finding J and K together
 ML is being used
 Job number = 22, Threshold = 1.00E-11
Integral type ranges set in mkLRange.C for JobNum: 22  <1-21|1-21>
 MakeJK  time:  CPU       3.92 s  wall       3.93 s
Fock build time:  3.92 s (CPU) 3.93 s (wall)
DIIS Errors:  Max 1.58E-01 RMS 7.64E-03

Current DIIS subspace size = 3
REM_GRID_RESTART_DIIS = 0

    3    -472.7649347955      7.64E-03  00000
Ite = 4 IFIte = 3 Thresh = 1.00e-11
Using dP: JK
Finding J and K together
 ML is being used
 Job number = 22, Threshold = 1.00E-11
Integral type ranges set in mkLRange.C for JobNum: 22  <1-21|1-21>
 MakeJK  time:  CPU       4.02 s  wall       4.03 s
Fock build time:  4.02 s (CPU) 4.03 s (wall)
DIIS Errors:  Max 9.50E-03 RMS 9.77E-04

Current DIIS subspace size = 4
REM_GRID_RESTART_DIIS = 0

    4    -472.8311865637      9.77E-04  00000
Ite = 5 IFIte = 4 Thresh = 1.00e-11
Using dP: JK
Finding J and K together
 ML is being used
 Job number = 22, Threshold = 1.00E-11
Integral type ranges set in mkLRange.C for JobNum: 22  <1-21|1-21>
 MakeJK  time:  CPU       3.92 s  wall       3.92 s
Fock build time:  3.92 s (CPU) 3.92 s (wall)
DIIS Errors:  Max 8.11E-03 RMS 6.46E-04

Current DIIS subspace size = 5
REM_GRID_RESTART_DIIS = 0

    5    -472.8348038851      6.46E-04  00000
Ite = 6 IFIte = 5 Thresh = 1.00e-11
Using dP: JK
Finding J and K together
 ML is being used
 Job number = 22, Threshold = 1.00E-11
Integral type ranges set in mkLRange.C for JobNum: 22  <1-21|1-21>
 MakeJK  time:  CPU       3.95 s  wall       3.96 s
Fock build time:  3.95 s (CPU) 3.96 s (wall)
DIIS Errors:  Max 4.54E-03 RMS 4.15E-04

Current DIIS subspace size = 6
REM_GRID_RESTART_DIIS = 0

    6    -472.8362960143      4.15E-04  00000
Ite = 7 IFIte = 6 Thresh = 1.00e-11
Using dP: JK
Finding J and K together
 ML is being used
 Job number = 22, Threshold = 1.00E-11
Integral type ranges set in mkLRange.C for JobNum: 22  <1-21|1-21>
 MakeJK  time:  CPU       4.01 s  wall       4.02 s
Fock build time:  4.01 s (CPU) 4.02 s (wall)
DIIS Errors:  Max 3.27E-03 RMS 2.13E-04

Current DIIS subspace size = 7
REM_GRID_RESTART_DIIS = 0

    7    -472.8369347257      2.13E-04  00000
Ite = 8 IFIte = 7 Thresh = 1.00e-11
Using dP: JK
Finding J and K together
 ML is being used
 Job number = 22, Threshold = 1.00E-11
Integral type ranges set in mkLRange.C for JobNum: 22  <1-21|1-21>
 MakeJK  time:  CPU       3.93 s  wall       3.93 s
Fock build time:  3.93 s (CPU) 3.93 s (wall)
DIIS Errors:  Max 1.11E-03 RMS 1.08E-04

Current DIIS subspace size = 8
REM_GRID_RESTART_DIIS = 0

    8    -472.8373634327      1.08E-04  00000
Ite = 9 IFIte = 8 Thresh = 1.00e-11
Using dP: JK
Finding J and K together
 ML is being used
 Job number = 22, Threshold = 1.00E-11
Integral type ranges set in mkLRange.C for JobNum: 22  <1-21|1-21>
 MakeJK  time:  CPU       3.92 s  wall       3.92 s
Fock build time:  3.92 s (CPU) 3.92 s (wall)
DIIS Errors:  Max 8.98E-04 RMS 7.61E-05

Current DIIS subspace size = 9
REM_GRID_RESTART_DIIS = 0

    9    -472.8375936795      7.61E-05  00000
Ite = 10 IFIte = 9 Thresh = 1.00e-11
Using dP: JK
Finding J and K together
 ML is being used
 Job number = 22, Threshold = 1.00E-11
Integral type ranges set in mkLRange.C for JobNum: 22  <1-21|1-21>
 MakeJK  time:  CPU       3.92 s  wall       3.92 s
Fock build time:  3.92 s (CPU) 3.92 s (wall)
DIIS Errors:  Max 7.93E-04 RMS 6.97E-05

Current DIIS subspace size = 10
REM_GRID_RESTART_DIIS = 0

   10    -472.8377014964      6.97E-05  00000
Ite = 11 IFIte = 10 Thresh = 1.00e-11
Using dP: JK
Finding J and K together
 ML is being used
 Job number = 22, Threshold = 1.00E-11
Integral type ranges set in mkLRange.C for JobNum: 22  <1-21|1-21>
 MakeJK  time:  CPU       3.92 s  wall       3.92 s
Fock build time:  3.92 s (CPU) 3.92 s (wall)
DIIS Errors:  Max 7.30E-04 RMS 6.17E-05

Current DIIS subspace size = 11
REM_GRID_RESTART_DIIS = 0

   11    -472.8377659776      6.17E-05  00000
Ite = 12 IFIte = 11 Thresh = 1.00e-11
Using dP: JK
Finding J and K together
 ML is being used
 Job number = 22, Threshold = 1.00E-11
Integral type ranges set in mkLRange.C for JobNum: 22  <1-21|1-21>
 MakeJK  time:  CPU       3.92 s  wall       3.92 s
Fock build time:  3.92 s (CPU) 3.92 s (wall)
DIIS Errors:  Max 6.39E-04 RMS 5.26E-05

Current DIIS subspace size = 12
REM_GRID_RESTART_DIIS = 0

   12    -472.8378981998      5.26E-05  00000
Ite = 13 IFIte = 12 Thresh = 1.00e-11
Using dP: JK
Finding J and K together
 ML is being used
 Job number = 22, Threshold = 1.00E-11
Integral type ranges set in mkLRange.C for JobNum: 22  <1-21|1-21>
 MakeJK  time:  CPU       3.92 s  wall       3.93 s
Fock build time:  3.92 s (CPU) 3.93 s (wall)
DIIS Errors:  Max 5.49E-04 RMS 4.53E-05

Current DIIS subspace size = 13
REM_GRID_RESTART_DIIS = 0

   13    -472.8380492299      4.53E-05  00000
Ite = 14 IFIte = 13 Thresh = 1.00e-11
Using dP: JK
Finding J and K together
 ML is being used
 Job number = 22, Threshold = 1.00E-11
Integral type ranges set in mkLRange.C for JobNum: 22  <1-21|1-21>
 MakeJK  time:  CPU       3.92 s  wall       3.92 s
Fock build time:  3.92 s (CPU) 3.92 s (wall)
DIIS Errors:  Max 5.10E-04 RMS 4.18E-05

Current DIIS subspace size = 14
REM_GRID_RESTART_DIIS = 0

   14    -472.8381510950      4.18E-05  00000
Ite = 15 IFIte = 14 Thresh = 1.00e-11
Using dP: JK
Finding J and K together
 ML is being used
 Job number = 22, Threshold = 1.00E-11
Integral type ranges set in mkLRange.C for JobNum: 22  <1-21|1-21>
 MakeJK  time:  CPU       3.92 s  wall       3.92 s
Fock build time:  3.92 s (CPU) 3.93 s (wall)
DIIS Errors:  Max 4.48E-04 RMS 3.73E-05

Current DIIS subspace size = 15
REM_GRID_RESTART_DIIS = 0

   15    -472.8382826127      3.73E-05  00000
Ite = 16 IFIte = 0 Thresh = 1.00e-11
Finding J and K together
 Job number = 22, Threshold = 1.00E-11
Integral type ranges set in mkLRange.C for JobNum: 22  <1-21|1-21>
 MakeJK  time:  CPU       3.92 s  wall       3.93 s
Fock build time:  3.92 s (CPU) 3.93 s (wall)
DIIS Errors:  Max 4.67E-04 RMS 3.54E-05

Current DIIS subspace size = 15
REM_GRID_RESTART_DIIS = 0

   16    -472.8384209998      3.54E-05  00000
Ite = 17 IFIte = 1 Thresh = 1.00e-11
Using dP: JK
Finding J and K together
 ML is being used
 Job number = 22, Threshold = 1.00E-11
Integral type ranges set in mkLRange.C for JobNum: 22  <1-21|1-21>
 MakeJK  time:  CPU       3.92 s  wall       3.92 s
Fock build time:  3.92 s (CPU) 3.92 s (wall)
DIIS Errors:  Max 2.34E-04 RMS 2.32E-05

Current DIIS subspace size = 15
REM_GRID_RESTART_DIIS = 0

   17    -472.8385023454      2.32E-05  00000
Ite = 18 IFIte = 2 Thresh = 1.00e-11
Using dP: JK
Finding J and K together
 ML is being used
 Job number = 22, Threshold = 1.00E-11
Integral type ranges set in mkLRange.C for JobNum: 22  <1-21|1-21>
 MakeJK  time:  CPU       3.92 s  wall       3.92 s
Fock build time:  3.92 s (CPU) 3.92 s (wall)
DIIS Errors:  Max 8.77E-04 RMS 5.47E-05

Current DIIS subspace size = 15
REM_GRID_RESTART_DIIS = 0

   18    -472.8385690684      5.47E-05  00000
Ite = 19 IFIte = 3 Thresh = 1.00e-11
Using dP: JK
Finding J and K together
 ML is being used
 Job number = 22, Threshold = 1.00E-11
Integral type ranges set in mkLRange.C for JobNum: 22  <1-21|1-21>
 MakeJK  time:  CPU       4.02 s  wall       4.03 s
Fock build time:  4.02 s (CPU) 4.03 s (wall)
DIIS Errors:  Max 1.89E-04 RMS 1.48E-05

Current DIIS subspace size = 15
REM_GRID_RESTART_DIIS = 0

   19    -472.8385737669      1.48E-05  00000
Ite = 20 IFIte = 4 Thresh = 1.00e-11
Using dP: JK
Finding J and K together
 ML is being used
 Job number = 22, Threshold = 1.00E-11
Integral type ranges set in mkLRange.C for JobNum: 22  <1-21|1-21>
 MakeJK  time:  CPU       3.92 s  wall       3.92 s
Fock build time:  3.92 s (CPU) 3.92 s (wall)
DIIS Errors:  Max 4.28E-04 RMS 2.66E-05

Current DIIS subspace size = 15
REM_GRID_RESTART_DIIS = 0

   20    -472.8385880340      2.66E-05  00000
Ite = 21 IFIte = 5 Thresh = 1.00e-11
Using dP: JK
Finding J and K together
 ML is being used
 Job number = 22, Threshold = 1.00E-11
Integral type ranges set in mkLRange.C for JobNum: 22  <1-21|1-21>
 MakeJK  time:  CPU       3.92 s  wall       3.93 s
Fock build time:  3.92 s (CPU) 3.93 s (wall)
DIIS Errors:  Max 1.18E-04 RMS 7.68E-06

Current DIIS subspace size = 15
REM_GRID_RESTART_DIIS = 0

   21    -472.8385908757      7.68E-06  00000
Ite = 22 IFIte = 6 Thresh = 1.00e-11
Using dP: JK
Finding J and K together
 ML is being used
 Job number = 22, Threshold = 1.00E-11
Integral type ranges set in mkLRange.C for JobNum: 22  <1-21|1-21>
 MakeJK  time:  CPU       4.04 s  wall       4.04 s
Fock build time:  4.04 s (CPU) 4.04 s (wall)
DIIS Errors:  Max 4.02E-05 RMS 3.13E-06

Current DIIS subspace size = 15
REM_GRID_RESTART_DIIS = 0

   22    -472.8385917888      3.13E-06  00000
Ite = 23 IFIte = 7 Thresh = 1.00e-11
Using dP: JK
Finding J and K together
 ML is being used
 Job number = 22, Threshold = 1.00E-11
Integral type ranges set in mkLRange.C for JobNum: 22  <1-21|1-21>
 MakeJK  time:  CPU       3.92 s  wall       3.92 s
Fock build time:  3.92 s (CPU) 3.92 s (wall)
DIIS Errors:  Max 5.87E-05 RMS 4.51E-06

Current DIIS subspace size = 15
REM_GRID_RESTART_DIIS = 0

   23    -472.8385921225      4.51E-06  00000
Ite = 24 IFIte = 8 Thresh = 1.00e-11
Using dP: JK
Finding J and K together
 ML is being used
 Job number = 22, Threshold = 1.00E-11
Integral type ranges set in mkLRange.C for JobNum: 22  <1-21|1-21>
 MakeJK  time:  CPU       3.91 s  wall       3.91 s
Fock build time:  3.91 s (CPU) 3.91 s (wall)
DIIS Errors:  Max 4.63E-05 RMS 3.58E-06

Current DIIS subspace size = 15
REM_GRID_RESTART_DIIS = 0

   24    -472.8385922840      3.58E-06  00000
Ite = 25 IFIte = 9 Thresh = 1.00e-11
Using dP: JK
Finding J and K together
 ML is being used
 Job number = 22, Threshold = 1.00E-11
Integral type ranges set in mkLRange.C for JobNum: 22  <1-21|1-21>
 MakeJK  time:  CPU       3.91 s  wall       3.91 s
Fock build time:  3.91 s (CPU) 3.91 s (wall)
DIIS Errors:  Max 1.80E-05 RMS 1.78E-06

Current DIIS subspace size = 15
REM_GRID_RESTART_DIIS = 0

   25    -472.8385923877      1.78E-06  00000
Ite = 26 IFIte = 10 Thresh = 1.00e-11
Using dP: JK
Finding J and K together
 ML is being used
 Job number = 22, Threshold = 1.00E-11
Integral type ranges set in mkLRange.C for JobNum: 22  <1-21|1-21>
 MakeJK  time:  CPU       3.90 s  wall       3.91 s
Fock build time:  3.90 s (CPU) 3.91 s (wall)
DIIS Errors:  Max 1.68E-05 RMS 1.58E-06

Current DIIS subspace size = 15
REM_GRID_RESTART_DIIS = 0

   26    -472.8385924516      1.58E-06  00000
Ite = 27 IFIte = 11 Thresh = 1.00e-11
Using dP: JK
Finding J and K together
 ML is being used
 Job number = 22, Threshold = 1.00E-11
Integral type ranges set in mkLRange.C for JobNum: 22  <1-21|1-21>
 MakeJK  time:  CPU       3.91 s  wall       3.91 s
Fock build time:  3.91 s (CPU) 3.91 s (wall)
DIIS Errors:  Max 2.39E-05 RMS 1.88E-06

Current DIIS subspace size = 15
REM_GRID_RESTART_DIIS = 0

   27    -472.8385924960      1.88E-06  00000
Ite = 28 IFIte = 12 Thresh = 1.00e-11
Using dP: JK
Finding J and K together
 ML is being used
 Job number = 22, Threshold = 1.00E-11
Integral type ranges set in mkLRange.C for JobNum: 22  <1-21|1-21>
 MakeJK  time:  CPU       3.91 s  wall       3.91 s
Fock build time:  3.91 s (CPU) 3.91 s (wall)
DIIS Errors:  Max 1.44E-05 RMS 1.24E-06

Current DIIS subspace size = 15
REM_GRID_RESTART_DIIS = 0

   28    -472.8385925575      1.24E-06  00000
Ite = 29 IFIte = 13 Thresh = 1.00e-11
Using dP: JK
Finding J and K together
 ML is being used
 Job number = 22, Threshold = 1.00E-11
Integral type ranges set in mkLRange.C for JobNum: 22  <1-21|1-21>
 MakeJK  time:  CPU       3.91 s  wall       3.91 s
Fock build time:  3.91 s (CPU) 3.91 s (wall)
DIIS Errors:  Max 1.30E-05 RMS 9.81E-07

Current DIIS subspace size = 15
REM_GRID_RESTART_DIIS = 0

   29    -472.8385926120      9.81E-07  00000
Ite = 30 IFIte = 14 Thresh = 1.00e-11
Using dP: JK
Finding J and K together
 ML is being used
 Job number = 22, Threshold = 1.00E-11
Integral type ranges set in mkLRange.C for JobNum: 22  <1-21|1-21>
 MakeJK  time:  CPU       3.91 s  wall       3.91 s
Fock build time:  3.91 s (CPU) 3.91 s (wall)
DIIS Errors:  Max 1.05E-05 RMS 9.47E-07

Current DIIS subspace size = 15
REM_GRID_RESTART_DIIS = 0

   30    -472.8385926984      9.47E-07  00000
Ite = 31 IFIte = 0 Thresh = 1.00e-11
Finding J and K together
 Job number = 22, Threshold = 1.00E-11
Integral type ranges set in mkLRange.C for JobNum: 22  <1-21|1-21>
 MakeJK  time:  CPU       3.92 s  wall       3.92 s
Fock build time:  3.92 s (CPU) 3.93 s (wall)
DIIS Errors:  Max 8.55E-06 RMS 8.92E-07

Current DIIS subspace size = 15
REM_GRID_RESTART_DIIS = 0

   31    -472.8385927851      8.92E-07  00000
Ite = 32 IFIte = 1 Thresh = 1.00e-11
Using dP: JK
Finding J and K together
 ML is being used
 Job number = 22, Threshold = 1.00E-11
Integral type ranges set in mkLRange.C for JobNum: 22  <1-21|1-21>
 MakeJK  time:  CPU       3.91 s  wall       3.91 s
Fock build time:  3.91 s (CPU) 3.91 s (wall)
DIIS Errors:  Max 6.32E-06 RMS 4.98E-07

Current DIIS subspace size = 15
REM_GRID_RESTART_DIIS = 0

   32    -472.8385928544      4.98E-07  00000
Ite = 33 IFIte = 2 Thresh = 1.00e-11
Using dP: JK
Finding J and K together
 ML is being used
 Job number = 22, Threshold = 1.00E-11
Integral type ranges set in mkLRange.C for JobNum: 22  <1-21|1-21>
 MakeJK  time:  CPU       3.91 s  wall       3.91 s
Fock build time:  3.91 s (CPU) 3.91 s (wall)
DIIS Errors:  Max 2.36E-06 RMS 2.24E-07

Current DIIS subspace size = 15
REM_GRID_RESTART_DIIS = 0

   33    -472.8385928722      2.24E-07  00000
Ite = 34 IFIte = 3 Thresh = 1.00e-11
Using dP: JK
Finding J and K together
 ML is being used
 Job number = 22, Threshold = 1.00E-11
Integral type ranges set in mkLRange.C for JobNum: 22  <1-21|1-21>
 MakeJK  time:  CPU       3.98 s  wall       3.98 s
Fock build time:  3.98 s (CPU) 3.98 s (wall)
DIIS Errors:  Max 2.17E-06 RMS 1.50E-07

Current DIIS subspace size = 15
REM_GRID_RESTART_DIIS = 0

   34    -472.8385928756      1.50E-07  00000
Ite = 35 IFIte = 4 Thresh = 1.00e-11
Using dP: JK
Finding J and K together
 ML is being used
 Job number = 22, Threshold = 1.00E-11
Integral type ranges set in mkLRange.C for JobNum: 22  <1-21|1-21>
 MakeJK  time:  CPU       3.93 s  wall       3.93 s
Fock build time:  3.93 s (CPU) 3.94 s (wall)
DIIS Errors:  Max 1.56E-06 RMS 9.58E-08

Current DIIS subspace size = 15
REM_GRID_RESTART_DIIS = 0

   35    -472.8385928766      9.58E-08  00000
Ite = 36 IFIte = 5 Thresh = 1.00e-11
Using dP: JK
Finding J and K together
 ML is being used
 Job number = 22, Threshold = 1.00E-11
Integral type ranges set in mkLRange.C for JobNum: 22  <1-21|1-21>
 MakeJK  time:  CPU       3.89 s  wall       3.89 s
Fock build time:  3.89 s (CPU) 3.89 s (wall)
DIIS Errors:  Max 9.71E-07 RMS 5.79E-08

Current DIIS subspace size = 15
REM_GRID_RESTART_DIIS = 0

   36    -472.8385928769      5.79E-08  00000
Ite = 37 IFIte = 6 Thresh = 1.00e-11
Using dP: JK
Finding J and K together
 ML is being used
 Job number = 22, Threshold = 1.00E-11
Integral type ranges set in mkLRange.C for JobNum: 22  <1-21|1-21>
 MakeJK  time:  CPU       4.00 s  wall       4.00 s
Fock build time:  4.00 s (CPU) 4.00 s (wall)
DIIS Errors:  Max 5.09E-07 RMS 3.20E-08

Current DIIS subspace size = 15
REM_GRID_RESTART_DIIS = 0

   37    -472.8385928770      3.20E-08  00000
Ite = 38 IFIte = 7 Thresh = 1.00e-11
Using dP: JK
Finding J and K together
 ML is being used
 Job number = 22, Threshold = 1.00E-11
Integral type ranges set in mkLRange.C for JobNum: 22  <1-21|1-21>
 MakeJK  time:  CPU       3.86 s  wall       3.87 s
Fock build time:  3.86 s (CPU) 3.87 s (wall)
DIIS Errors:  Max 2.68E-07 RMS 2.02E-08

Current DIIS subspace size = 15
REM_GRID_RESTART_DIIS = 0

   38    -472.8385928770      2.02E-08  00000
Ite = 39 IFIte = 8 Thresh = 1.00e-11
Using dP: JK
Finding J and K together
 ML is being used
 Job number = 22, Threshold = 1.00E-11
Integral type ranges set in mkLRange.C for JobNum: 22  <1-21|1-21>
 MakeJK  time:  CPU       3.86 s  wall       3.86 s
Fock build time:  3.86 s (CPU) 3.86 s (wall)
DIIS Errors:  Max 1.52E-07 RMS 1.25E-08

Current DIIS subspace size = 15
REM_GRID_RESTART_DIIS = 0

   39    -472.8385928768      1.25E-08  00000
Ite = 40 IFIte = 9 Thresh = 1.00e-11
Using dP: JK
Finding J and K together
 ML is being used
 Job number = 22, Threshold = 1.00E-11
Integral type ranges set in mkLRange.C for JobNum: 22  <1-21|1-21>
 MakeJK  time:  CPU       3.83 s  wall       3.83 s
Fock build time:  3.83 s (CPU) 3.83 s (wall)
DIIS Errors:  Max 1.16E-07 RMS 1.08E-08

Current DIIS subspace size = 15
REM_GRID_RESTART_DIIS = 0

   40    -472.8385928767      1.08E-08  00000
Ite = 41 IFIte = 10 Thresh = 1.00e-11
Using dP: JK
Finding J and K together
 ML is being used
 Job number = 22, Threshold = 1.00E-11
Integral type ranges set in mkLRange.C for JobNum: 22  <1-21|1-21>
 MakeJK  time:  CPU       3.83 s  wall       3.84 s
Fock build time:  3.83 s (CPU) 3.84 s (wall)
DIIS Errors:  Max 7.90E-08 RMS 8.25E-09

Current DIIS subspace size = 15
REM_GRID_RESTART_DIIS = 0

   41    -472.8385928764      8.25E-09  00000 Convergence criterion met
 ---------------------------------------
 SCF time:  CPU 159.64 s  wall 159.77 s
 SCF   energy in the final basis set = -472.83859288
 Total energy in the final basis set = -472.83859288
drvman_main.C: 73: calling DrvMan  Calculating analytic gradient of the SCF energy
drvman.C : 218: Calculating analytic gradient of the SCF energy
drvman.C: 244: calling SCF_Grad for normal SCF gradient
 Job number = 111, Threshold = 1.00E-11
Integral type ranges set in mkLRange.C for JobNum: 11  <1-21|40-40>
Finding J and K together
 ML is being used
 Job number = 122, Threshold = 1.00E-11
Integral type ranges set in mkLRange.C for JobNum: 22  <1-21|1-21>
 MakeJK  time:  CPU      10.04 s  wall      10.02 s
 Gradient of SCF Energy
            1           2           3           4
    1  -0.0390073   0.0112070   0.0270046   0.0007958
    2   0.0070158  -0.0378649   0.0292084   0.0016407
    3  -0.0074789  -0.0060841  -0.0108678   0.0244308
 Max gradient component =       3.901E-02
 RMS gradient           =       2.145E-02
drvman.C: 248: out of SCF_Grad for normal SCF gradient
 Gradient time:  CPU 26.23 s  wall 26.23 s
 ------------------------------------------------------------------------------
                     drvman        : Timing summary (seconds)
 ------------------------------------------------------------------------------
     job step          cpu (% of tot)      sys (% of tot)     wall (% of tot)
 ------------------------------------------------------------------------------
 ------------------------------------------------------------------------------
   Grand Totals     0.2623E+02          0.8000E-05          0.2623E+02
 ------------------------------------------------------------------------------
drvman_main.C: 77: out of DrvMan  Time for this dynamics step: 188.0 s (CPU) 188.1 s (wall)

TIME STEP #3 (t = 40.000 a.u. = 0.96755 fs)
--------------------------------------
 Instantaneous Temperature = 451.0 K
 ----------------------------------------------------------------
             Standard Nuclear Orientation (Angstroms)
    I     Atom           X                Y                Z
 ----------------------------------------------------------------
    1      Pt     -1.8377213676     2.4980218716     0.2845538802
    2      Pt      0.1851721930     0.6698112560     0.3456470956
    3      Pt      0.7524468278     3.3266494708     0.1664049365
    4      Pt     -0.3561076532     2.0233174017    -1.9586659123
 ----------------------------------------------------------------
 Nuclear Repulsion Energy =   377.3536300381 hartrees
 There are       36 alpha and       36 beta electrons

                       Distance Matrix (Angstroms)
             Pt(  1)   Pt(  2)   Pt(  3)
   Pt(  2)  2.727304
   Pt(  3)  2.722050  2.722631
   Pt(  4)  2.729937  2.726687  2.728277

 Applying Cartesian multipole field
    Component          Value
    ---------          -----
     (2,0,0)        1.00000E-11
     (0,2,0)        2.00000E-11
     (0,0,2)       -3.00000E-11
 Nucleus-field energy     =     0.0000000229 hartrees
 ENuRep (before)= 377.3536300381
 ENucField = 0.0000000229
 ENuRep (after) = 377.3536300610
 Job number = 2, Threshold = 1.00E-11
Integral type ranges set in mkLRange.C for JobNum: 2  <1-21|1-21>
Symmetry turned off temporarily
Symmetry turned back on
 Job number = 2, Threshold = 1.00E-11
Integral type ranges set in mkLRange.C for JobNum: 2  <1-21|1-21>
Symmetry turned off temporarily
Symmetry turned back on
Integral type ranges set in mkLRange.C for JobNum: 18  <1-21|22-39>
Integral type ranges set in mkLRange.C for JobNum: 18  <1-21|22-39>
 Job number = 11, Threshold = 1.00E-11
Integral type ranges set in mkLRange.C for JobNum: 11  <1-21|40-40>
 Smallest overlap matrix eigenvalue = 3.38E-03
 Multipole matrices computed through 2nd order
 Guess from superposition of atomic densities
 Warning:  Energy on first SCF cycle will be non-variational
 SAD guess density has 72.000000 electrons
 SCF convergence criterion is 10**(-8)
 A restricted Hartree-Fock SCF calculation will be
 performed using Pulay DIIS extrapolation
 SCF converges when DIIS error is below 1.0E-08
Using Integral Screening
Finding J and K together
 ML is being used
 Job number = 22, Threshold = 1.00E-11
Integral type ranges set in mkLRange.C for JobNum: 22  <1-21|1-21>
 MakeJK  time:  CPU       2.07 s  wall       2.07 s
Fock build time:  2.07 s (CPU) 2.07 s (wall)
DIIS Errors:  Max 2.95E-01 RMS 3.25E-02

Current DIIS subspace size = 1
REM_GRID_RESTART_DIIS = 0

 ---------------------------------------
  Cycle       Energy         DIIS Error
 ---------------------------------------
    1    -472.5982700303      3.25E-02  00000
Ite = 2 IFIte = 1 Thresh = 1.00e-11
Finding J and K together
 Job number = 22, Threshold = 1.00E-11
Integral type ranges set in mkLRange.C for JobNum: 22  <1-21|1-21>
 MakeJK  time:  CPU       4.03 s  wall       4.04 s
Fock build time:  4.03 s (CPU) 4.04 s (wall)
DIIS Errors:  Max 1.15E-01 RMS 6.00E-03

Current DIIS subspace size = 2
REM_GRID_RESTART_DIIS = 0

    2    -472.7697657515      6.00E-03  00000
Ite = 3 IFIte = 2 Thresh = 1.00e-11
Using dP: JK
Finding J and K together
 ML is being used
 Job number = 22, Threshold = 1.00E-11
Integral type ranges set in mkLRange.C for JobNum: 22  <1-21|1-21>
 MakeJK  time:  CPU       3.93 s  wall       3.93 s
Fock build time:  3.93 s (CPU) 3.93 s (wall)
DIIS Errors:  Max 1.58E-01 RMS 7.65E-03

Current DIIS subspace size = 3
REM_GRID_RESTART_DIIS = 0

    3    -472.7650769947      7.65E-03  00000
Ite = 4 IFIte = 3 Thresh = 1.00e-11
Using dP: JK
Finding J and K together
 ML is being used
 Job number = 22, Threshold = 1.00E-11
Integral type ranges set in mkLRange.C for JobNum: 22  <1-21|1-21>
 MakeJK  time:  CPU       4.08 s  wall       4.08 s
Fock build time:  4.08 s (CPU) 4.09 s (wall)
DIIS Errors:  Max 9.45E-03 RMS 9.75E-04

Current DIIS subspace size = 4
REM_GRID_RESTART_DIIS = 0

    4    -472.8314757341      9.75E-04  00000
Ite = 5 IFIte = 4 Thresh = 1.00e-11
Using dP: JK
Finding J and K together
 ML is being used
 Job number = 22, Threshold = 1.00E-11
Integral type ranges set in mkLRange.C for JobNum: 22  <1-21|1-21>
 MakeJK  time:  CPU       4.01 s  wall       4.01 s
Fock build time:  4.01 s (CPU) 4.01 s (wall)
DIIS Errors:  Max 8.08E-03 RMS 6.45E-04

Current DIIS subspace size = 5
REM_GRID_RESTART_DIIS = 0

    5    -472.8350940489      6.45E-04  00000
Ite = 6 IFIte = 5 Thresh = 1.00e-11
Using dP: JK
Finding J and K together
 ML is being used
 Job number = 22, Threshold = 1.00E-11
Integral type ranges set in mkLRange.C for JobNum: 22  <1-21|1-21>
 MakeJK  time:  CPU       3.94 s  wall       3.95 s
Fock build time:  3.94 s (CPU) 3.95 s (wall)
DIIS Errors:  Max 4.54E-03 RMS 4.13E-04

Current DIIS subspace size = 6
REM_GRID_RESTART_DIIS = 0

    6    -472.8365764207      4.13E-04  00000
Ite = 7 IFIte = 6 Thresh = 1.00e-11
Using dP: JK
Finding J and K together
 ML is being used
 Job number = 22, Threshold = 1.00E-11
Integral type ranges set in mkLRange.C for JobNum: 22  <1-21|1-21>
 MakeJK  time:  CPU       3.92 s  wall       3.93 s
Fock build time:  3.92 s (CPU) 3.93 s (wall)
DIIS Errors:  Max 3.25E-03 RMS 2.12E-04

Current DIIS subspace size = 7
REM_GRID_RESTART_DIIS = 0

    7    -472.8372116814      2.12E-04  00000
Ite = 8 IFIte = 7 Thresh = 1.00e-11
Using dP: JK
Finding J and K together
 ML is being used
 Job number = 22, Threshold = 1.00E-11
Integral type ranges set in mkLRange.C for JobNum: 22  <1-21|1-21>
 MakeJK  time:  CPU       3.93 s  wall       3.93 s
Fock build time:  3.93 s (CPU) 3.93 s (wall)
DIIS Errors:  Max 1.11E-03 RMS 1.08E-04

Current DIIS subspace size = 8
REM_GRID_RESTART_DIIS = 0

    8    -472.8376351753      1.08E-04  00000
Ite = 9 IFIte = 8 Thresh = 1.00e-11
Using dP: JK
Finding J and K together
 ML is being used
 Job number = 22, Threshold = 1.00E-11
Integral type ranges set in mkLRange.C for JobNum: 22  <1-21|1-21>
 MakeJK  time:  CPU       3.93 s  wall       3.94 s
Fock build time:  3.93 s (CPU) 3.94 s (wall)
DIIS Errors:  Max 8.98E-04 RMS 7.53E-05

Current DIIS subspace size = 9
REM_GRID_RESTART_DIIS = 0

    9    -472.8378615521      7.53E-05  00000
Ite = 10 IFIte = 9 Thresh = 1.00e-11
Using dP: JK
Finding J and K together
 ML is being used
 Job number = 22, Threshold = 1.00E-11
Integral type ranges set in mkLRange.C for JobNum: 22  <1-21|1-21>
 MakeJK  time:  CPU       3.94 s  wall       3.94 s
Fock build time:  3.94 s (CPU) 3.94 s (wall)
DIIS Errors:  Max 7.77E-04 RMS 6.86E-05

Current DIIS subspace size = 10
REM_GRID_RESTART_DIIS = 0

   10    -472.8379682130      6.86E-05  00000
Ite = 11 IFIte = 10 Thresh = 1.00e-11
Using dP: JK
Finding J and K together
 ML is being used
 Job number = 22, Threshold = 1.00E-11
Integral type ranges set in mkLRange.C for JobNum: 22  <1-21|1-21>
 MakeJK  time:  CPU       3.92 s  wall       3.93 s
Fock build time:  3.93 s (CPU) 3.93 s (wall)
DIIS Errors:  Max 7.16E-04 RMS 6.09E-05

Current DIIS subspace size = 11
REM_GRID_RESTART_DIIS = 0

   11    -472.8380305899      6.09E-05  00000
Ite = 12 IFIte = 11 Thresh = 1.00e-11
Using dP: JK
Finding J and K together
 ML is being used
 Job number = 22, Threshold = 1.00E-11
Integral type ranges set in mkLRange.C for JobNum: 22  <1-21|1-21>
 MakeJK  time:  CPU       3.92 s  wall       3.93 s
Fock build time:  3.92 s (CPU) 3.93 s (wall)
DIIS Errors:  Max 6.25E-04 RMS 5.15E-05

Current DIIS subspace size = 12
REM_GRID_RESTART_DIIS = 0

   12    -472.8381575840      5.15E-05  00000
Ite = 13 IFIte = 12 Thresh = 1.00e-11
Using dP: JK
Finding J and K together
 ML is being used
 Job number = 22, Threshold = 1.00E-11
Integral type ranges set in mkLRange.C for JobNum: 22  <1-21|1-21>
 MakeJK  time:  CPU       3.93 s  wall       3.93 s
Fock build time:  3.93 s (CPU) 3.93 s (wall)
DIIS Errors:  Max 5.34E-04 RMS 4.42E-05

Current DIIS subspace size = 13
REM_GRID_RESTART_DIIS = 0

   13    -472.8383010260      4.42E-05  00000
Ite = 14 IFIte = 13 Thresh = 1.00e-11
Using dP: JK
Finding J and K together
 ML is being used
 Job number = 22, Threshold = 1.00E-11
Integral type ranges set in mkLRange.C for JobNum: 22  <1-21|1-21>
 MakeJK  time:  CPU       3.92 s  wall       3.92 s
Fock build time:  3.92 s (CPU) 3.92 s (wall)
DIIS Errors:  Max 4.96E-04 RMS 4.06E-05

Current DIIS subspace size = 14
REM_GRID_RESTART_DIIS = 0

   14    -472.8383973183      4.06E-05  00000
Ite = 15 IFIte = 14 Thresh = 1.00e-11
Using dP: JK
Finding J and K together
 ML is being used
 Job number = 22, Threshold = 1.00E-11
Integral type ranges set in mkLRange.C for JobNum: 22  <1-21|1-21>
 MakeJK  time:  CPU       3.93 s  wall       3.93 s
Fock build time:  3.93 s (CPU) 3.93 s (wall)
DIIS Errors:  Max 4.34E-04 RMS 3.61E-05

Current DIIS subspace size = 15
REM_GRID_RESTART_DIIS = 0

   15    -472.8385200816      3.61E-05  00000
Ite = 16 IFIte = 0 Thresh = 1.00e-11
Finding J and K together
[...]
 ------------------------------------------------------------------------------
     job step          cpu (% of tot)      sys (% of tot)     wall (% of tot)
 ------------------------------------------------------------------------------
 ------------------------------------------------------------------------------
   Grand Totals     0.2646E+02          0.1000E-04          0.2645E+02
 ------------------------------------------------------------------------------
drvman_main.C: 77: out of DrvMan  Time for this dynamics step: 59.9 s (CPU) 60.0 s (wall)

TIME STEP #92 (t = 1820.000 a.u. = 44.02369 fs)
--------------------------------------
 Instantaneous Temperature = 1203.5 K
 ----------------------------------------------------------------
             Standard Nuclear Orientation (Angstroms)
    I     Atom           X                Y                Z
 ----------------------------------------------------------------
    1      Pt     -1.7038515493     2.5398065659     0.3767312331
    2      Pt      0.2359958617     0.8003730760     0.3313614747
    3      Pt      0.6196542786     3.2231296744     0.1854819273
    4      Pt     -0.4080085909     1.9544906837    -2.0556346350
 ----------------------------------------------------------------
 Nuclear Repulsion Energy =   391.6687910646 hartrees
 There are       36 alpha and       36 beta electrons

                       Distance Matrix (Angstroms)
             Pt(  1)   Pt(  2)   Pt(  3)
   Pt(  2)  2.605896
   Pt(  3)  2.429442  2.457280
   Pt(  4)  2.817482  2.728457  2.772749

 Applying Cartesian multipole field
    Component          Value
    ---------          -----
     (2,0,0)        1.00000E-11
     (0,2,0)        2.00000E-11
     (0,0,2)       -3.00000E-11
 Nucleus-field energy     =     0.0000000209 hartrees
 ENuRep (before)= 391.6687910646
 ENucField = 0.0000000209
 ENuRep (after) = 391.6687910855
 Job number = 2, Threshold = 1.00E-11
Integral type ranges set in mkLRange.C for JobNum: 2  <1-21|1-21>
Symmetry turned off temporarily
Symmetry turned back on
 Job number = 2, Threshold = 1.00E-11
Integral type ranges set in mkLRange.C for JobNum: 2  <1-21|1-21>
Symmetry turned off temporarily
Symmetry turned back on
Integral type ranges set in mkLRange.C for JobNum: 18  <1-21|22-39>
Integral type ranges set in mkLRange.C for JobNum: 18  <1-21|22-39>
 Job number = 11, Threshold = 1.00E-11
Integral type ranges set in mkLRange.C for JobNum: 11  <1-21|40-40>
 Smallest overlap matrix eigenvalue = 1.81E-03
 Multipole matrices computed through 2nd order
 Extrapolating the Fock matrix using 12 points and a 6th-order polynomial
 Alpha Fock matrix extrapolation
 Skip SCF guess (diagonalize extrapolated Fock matrix instead)
 SCF convergence criterion is 10**(-8)
 A restricted Hartree-Fock SCF calculation will be
 performed using Pulay DIIS extrapolation
 SCF converges when DIIS error is below 1.0E-08
Extrapolated Fock matrix used in lieu of Fock build
Fock build time:  0.00 s (CPU) 0.00 s (wall)
DIIS Errors:  Max 2.07E-03 RMS 1.61E-04

Current DIIS subspace size = 1
REM_GRID_RESTART_DIIS = 0

 ---------------------------------------
  Cycle       Energy         DIIS Error
 ---------------------------------------
    1   -1228.6874079596      1.61E-04  00000
Ite = 2 IFIte = 1 Thresh = 1.00e-11
Finding J and K together
 Job number = 22, Threshold = 1.00E-11
Integral type ranges set in mkLRange.C for JobNum: 22  <1-21|1-21>
 MakeJK  time:  CPU       3.98 s  wall       3.98 s
Fock build time:  3.98 s (CPU) 3.98 s (wall)
DIIS Errors:  Max 6.44E-07 RMS 6.16E-08

Current DIIS subspace size = 2
REM_GRID_RESTART_DIIS = 0

    2    -472.8526553372      6.16E-08  00000
Ite = 3 IFIte = 2 Thresh = 1.00e-11
Using dP: JK
Finding J and K together
 ML is being used
 Job number = 22, Threshold = 1.00E-11
Integral type ranges set in mkLRange.C for JobNum: 22  <1-21|1-21>
 MakeJK  time:  CPU       3.89 s  wall       3.89 s
Fock build time:  3.89 s (CPU) 3.89 s (wall)
DIIS Errors:  Max 6.36E-07 RMS 5.12E-08

Current DIIS subspace size = 3
REM_GRID_RESTART_DIIS = 0

    3    -472.8526553372      5.12E-08  00000
Ite = 4 IFIte = 3 Thresh = 1.00e-11
Using dP: JK
Finding J and K together
 ML is being used
 Job number = 22, Threshold = 1.00E-11
Integral type ranges set in mkLRange.C for JobNum: 22  <1-21|1-21>
 MakeJK  time:  CPU       3.85 s  wall       3.85 s
Fock build time:  3.85 s (CPU) 3.85 s (wall)
DIIS Errors:  Max 5.32E-07 RMS 5.11E-08

Current DIIS subspace size = 4
REM_GRID_RESTART_DIIS = 0

    4    -472.8526553373      5.11E-08  00000
Ite = 5 IFIte = 4 Thresh = 1.00e-11
Using dP: JK
Finding J and K together
 ML is being used
 Job number = 22, Threshold = 1.00E-11
Integral type ranges set in mkLRange.C for JobNum: 22  <1-21|1-21>
 MakeJK  time:  CPU       3.89 s  wall       3.89 s
Fock build time:  3.89 s (CPU) 3.89 s (wall)
DIIS Errors:  Max 4.96E-07 RMS 3.93E-08

Current DIIS subspace size = 5
REM_GRID_RESTART_DIIS = 0

    5    -472.8526553374      3.93E-08  00000
Ite = 6 IFIte = 5 Thresh = 1.00e-11
Using dP: JK
Finding J and K together
 ML is being used
 Job number = 22, Threshold = 1.00E-11
Integral type ranges set in mkLRange.C for JobNum: 22  <1-21|1-21>
 MakeJK  time:  CPU       3.94 s  wall       3.94 s
Fock build time:  3.94 s (CPU) 3.94 s (wall)
DIIS Errors:  Max 3.19E-07 RMS 1.90E-08

Current DIIS subspace size = 6
REM_GRID_RESTART_DIIS = 0

    6    -472.8526553375      1.90E-08  00000
Ite = 7 IFIte = 6 Thresh = 1.00e-11
Using dP: JK
Finding J and K together
 ML is being used
 Job number = 22, Threshold = 1.00E-11
Integral type ranges set in mkLRange.C for JobNum: 22  <1-21|1-21>
 MakeJK  time:  CPU       3.86 s  wall       3.87 s
Fock build time:  3.86 s (CPU) 3.87 s (wall)
DIIS Errors:  Max 2.59E-07 RMS 1.55E-08

Current DIIS subspace size = 7
REM_GRID_RESTART_DIIS = 0

    7    -472.8526553376      1.55E-08  00000
Ite = 8 IFIte = 7 Thresh = 1.00e-11
Using dP: JK
Finding J and K together
 ML is being used
 Job number = 22, Threshold = 1.00E-11
Integral type ranges set in mkLRange.C for JobNum: 22  <1-21|1-21>
 MakeJK  time:  CPU       3.86 s  wall       3.86 s
Fock build time:  3.86 s (CPU) 3.86 s (wall)
DIIS Errors:  Max 1.77E-07 RMS 1.13E-08

Current DIIS subspace size = 8
REM_GRID_RESTART_DIIS = 0

    8    -472.8526553378      1.13E-08  00000
Ite = 9 IFIte = 8 Thresh = 1.00e-11
Using dP: JK
Finding J and K together
 ML is being used
 Job number = 22, Threshold = 1.00E-11
Integral type ranges set in mkLRange.C for JobNum: 22  <1-21|1-21>
 MakeJK  time:  CPU       3.83 s  wall       3.83 s
Fock build time:  3.83 s (CPU) 3.83 s (wall)
DIIS Errors:  Max 1.16E-07 RMS 8.30E-09

Current DIIS subspace size = 9
REM_GRID_RESTART_DIIS = 0

    9    -472.8526553378      8.30E-09  00000 Convergence criterion met
 ---------------------------------------
 SCF time:  CPU 31.21 s  wall 31.24 s
 SCF   energy in the final basis set = -472.85265534
 Total energy in the final basis set = -472.85265534
drvman_main.C: 73: calling DrvMan  Calculating analytic gradient of the SCF energy
drvman.C : 218: Calculating analytic gradient of the SCF energy
drvman.C: 244: calling SCF_Grad for normal SCF gradient
 Job number = 111, Threshold = 1.00E-11
Integral type ranges set in mkLRange.C for JobNum: 11  <1-21|40-40>
Finding J and K together
 ML is being used
 Job number = 122, Threshold = 1.00E-11
Integral type ranges set in mkLRange.C for JobNum: 22  <1-21|1-21>
 MakeJK  time:  CPU      10.18 s  wall      10.17 s
 Gradient of SCF Energy
            1           2           3           4
    1   0.0265834   0.0017101  -0.0339125   0.0056190
    2   0.0077180   0.0248439  -0.0344809   0.0019190
    3  -0.0036801  -0.0091334  -0.0059807   0.0187943
 Max gradient component =       3.448E-02
 RMS gradient           =       1.881E-02
drvman.C: 248: out of SCF_Grad for normal SCF gradient
 Gradient time:  CPU 26.49 s  wall 26.48 s
 ------------------------------------------------------------------------------
                     drvman        : Timing summary (seconds)
 ------------------------------------------------------------------------------
     job step          cpu (% of tot)      sys (% of tot)     wall (% of tot)
 ------------------------------------------------------------------------------
 ------------------------------------------------------------------------------
   Grand Totals     0.2649E+02          0.1200E-04          0.2648E+02
 ------------------------------------------------------------------------------
drvman_main.C: 77: out of DrvMan  Time for this dynamics step: 59.8 s (CPU) 59.8 s (wall)

TIME STEP #93 (t = 1840.000 a.u. = 44.50747 fs)
--------------------------------------
 Instantaneous Temperature = 1191.1 K
 ----------------------------------------------------------------
             Standard Nuclear Orientation (Angstroms)
    I     Atom           X                Y                Z
 ----------------------------------------------------------------
    1      Pt     -1.7022122092     2.5401796354     0.3778599310
    2      Pt      0.2364935986     0.8019185266     0.3314205212
    3      Pt      0.6182343533     3.2220464392     0.1859703079
    4      Pt     -0.4087257427     1.9536553988    -2.0573107600
 ----------------------------------------------------------------
 Nuclear Repulsion Energy =   391.8045859190 hartrees
 There are       36 alpha and       36 beta electrons

                       Distance Matrix (Angstroms)
             Pt(  1)   Pt(  2)   Pt(  3)
   Pt(  2)  2.604283
   Pt(  3)  2.426157  2.454364
   Pt(  4)  2.819073  2.729257  2.774126

 Applying Cartesian multipole field
    Component          Value
    ---------          -----
     (2,0,0)        1.00000E-11
     (0,2,0)        2.00000E-11
     (0,0,2)       -3.00000E-11
 Nucleus-field energy     =     0.0000000209 hartrees
 ENuRep (before)= 391.8045859190
 ENucField = 0.0000000209
 ENuRep (after) = 391.8045859399
 Job number = 2, Threshold = 1.00E-11
Integral type ranges set in mkLRange.C for JobNum: 2  <1-21|1-21>
Symmetry turned off temporarily
Symmetry turned back on
 Job number = 2, Threshold = 1.00E-11
Integral type ranges set in mkLRange.C for JobNum: 2  <1-21|1-21>
Symmetry turned off temporarily
Symmetry turned back on
Integral type ranges set in mkLRange.C for JobNum: 18  <1-21|22-39>
Integral type ranges set in mkLRange.C for JobNum: 18  <1-21|22-39>
 Job number = 11, Threshold = 1.00E-11
Integral type ranges set in mkLRange.C for JobNum: 11  <1-21|40-40>
 Smallest overlap matrix eigenvalue = 1.80E-03
 Multipole matrices computed through 2nd order
 Extrapolating the Fock matrix using 12 points and a 6th-order polynomial
 Alpha Fock matrix extrapolation
 Skip SCF guess (diagonalize extrapolated Fock matrix instead)
 SCF convergence criterion is 10**(-8)
 A restricted Hartree-Fock SCF calculation will be
 performed using Pulay DIIS extrapolation
 SCF converges when DIIS error is below 1.0E-08
Extrapolated Fock matrix used in lieu of Fock build
Fock build time:  0.00 s (CPU) 0.00 s (wall)
DIIS Errors:  Max 2.05E-03 RMS 1.60E-04

Current DIIS subspace size = 1
REM_GRID_RESTART_DIIS = 0

 ---------------------------------------
  Cycle       Energy         DIIS Error
 ---------------------------------------
    1   -1228.8171050480      1.60E-04  00000
Ite = 2 IFIte = 1 Thresh = 1.00e-11
Finding J and K together
 Job number = 22, Threshold = 1.00E-11
Integral type ranges set in mkLRange.C for JobNum: 22  <1-21|1-21>
 MakeJK  time:  CPU       3.98 s  wall       3.98 s
Fock build time:  3.98 s (CPU) 3.98 s (wall)
DIIS Errors:  Max 6.53E-07 RMS 7.43E-08

Current DIIS subspace size = 2
REM_GRID_RESTART_DIIS = 0

    2    -472.8524089154      7.43E-08  00000
Ite = 3 IFIte = 2 Thresh = 1.00e-11
Using dP: JK
Finding J and K together
 ML is being used
 Job number = 22, Threshold = 1.00E-11
Integral type ranges set in mkLRange.C for JobNum: 22  <1-21|1-21>
 MakeJK  time:  CPU       3.90 s  wall       3.90 s
Fock build time:  3.90 s (CPU) 3.90 s (wall)
DIIS Errors:  Max 6.90E-07 RMS 5.58E-08

Current DIIS subspace size = 3
REM_GRID_RESTART_DIIS = 0

    3    -472.8524089155      5.58E-08  00000
Ite = 4 IFIte = 3 Thresh = 1.00e-11
Using dP: JK
Finding J and K together
 ML is being used
 Job number = 22, Threshold = 1.00E-11
Integral type ranges set in mkLRange.C for JobNum: 22  <1-21|1-21>
 MakeJK  time:  CPU       3.87 s  wall       3.87 s
Fock build time:  3.87 s (CPU) 3.87 s (wall)
DIIS Errors:  Max 6.55E-07 RMS 5.82E-08

Current DIIS subspace size = 4
REM_GRID_RESTART_DIIS = 0

    4    -472.8524089156      5.82E-08  00000
Ite = 5 IFIte = 4 Thresh = 1.00e-11
Using dP: JK
Finding J and K together
 ML is being used
 Job number = 22, Threshold = 1.00E-11
Integral type ranges set in mkLRange.C for JobNum: 22  <1-21|1-21>
 MakeJK  time:  CPU       3.87 s  wall       3.87 s
Fock build time:  3.87 s (CPU) 3.87 s (wall)
DIIS Errors:  Max 4.92E-07 RMS 4.49E-08

Current DIIS subspace size = 5
REM_GRID_RESTART_DIIS = 0

    5    -472.8524089156      4.49E-08  00000
Ite = 6 IFIte = 5 Thresh = 1.00e-11
Using dP: JK
Finding J and K together
 ML is being used
 Job number = 22, Threshold = 1.00E-11
Integral type ranges set in mkLRange.C for JobNum: 22  <1-21|1-21>
 MakeJK  time:  CPU       3.93 s  wall       3.93 s
Fock build time:  3.93 s (CPU) 3.94 s (wall)
DIIS Errors:  Max 3.93E-07 RMS 2.75E-08

Current DIIS subspace size = 6
REM_GRID_RESTART_DIIS = 0

    6    -472.8524089157      2.75E-08  00000
Ite = 7 IFIte = 6 Thresh = 1.00e-11
Using dP: JK
Finding J and K together
 ML is being used
 Job number = 22, Threshold = 1.00E-11
Integral type ranges set in mkLRange.C for JobNum: 22  <1-21|1-21>
 MakeJK  time:  CPU       3.89 s  wall       3.89 s
Fock build time:  3.89 s (CPU) 3.89 s (wall)
DIIS Errors:  Max 3.51E-07 RMS 1.98E-08

Current DIIS subspace size = 7
REM_GRID_RESTART_DIIS = 0

    7    -472.8524089157      1.98E-08  00000
Ite = 8 IFIte = 7 Thresh = 1.00e-11
Using dP: JK
Finding J and K together
 ML is being used
 Job number = 22, Threshold = 1.00E-11
Integral type ranges set in mkLRange.C for JobNum: 22  <1-21|1-21>
 MakeJK  time:  CPU       3.89 s  wall       3.90 s
Fock build time:  3.89 s (CPU) 3.90 s (wall)
DIIS Errors:  Max 2.70E-07 RMS 1.53E-08

Current DIIS subspace size = 8
REM_GRID_RESTART_DIIS = 0

    8    -472.8524089156      1.53E-08  00000
Ite = 9 IFIte = 8 Thresh = 1.00e-11
Using dP: JK
Finding J and K together
 ML is being used
 Job number = 22, Threshold = 1.00E-11
Integral type ranges set in mkLRange.C for JobNum: 22  <1-21|1-21>
 MakeJK  time:  CPU       3.86 s  wall       3.86 s
Fock build time:  3.86 s (CPU) 3.86 s (wall)
DIIS Errors:  Max 2.13E-07 RMS 1.10E-08

Current DIIS subspace size = 9
REM_GRID_RESTART_DIIS = 0

    9    -472.8524089155      1.10E-08  00000
Ite = 10 IFIte = 9 Thresh = 1.00e-11
Using dP: JK
Finding J and K together
 ML is being used
 Job number = 22, Threshold = 1.00E-11
Integral type ranges set in mkLRange.C for JobNum: 22  <1-21|1-21>
 MakeJK  time:  CPU       3.87 s  wall       3.87 s
Fock build time:  3.87 s (CPU) 3.88 s (wall)
DIIS Errors:  Max 1.39E-07 RMS 8.75E-09

Current DIIS subspace size = 10
REM_GRID_RESTART_DIIS = 0

   10    -472.8524089155      8.75E-09  00000 Convergence criterion met
 ---------------------------------------
 SCF time:  CPU 35.20 s  wall 35.22 s
 SCF   energy in the final basis set = -472.85240892
 Total energy in the final basis set = -472.85240892
drvman_main.C: 73: calling DrvMan  Calculating analytic gradient of the SCF energy
drvman.C : 218: Calculating analytic gradient of the SCF energy
drvman.C: 244: calling SCF_Grad for normal SCF gradient
 Job number = 111, Threshold = 1.00E-11
Integral type ranges set in mkLRange.C for JobNum: 11  <1-21|40-40>
Finding J and K together
 ML is being used
 Job number = 122, Threshold = 1.00E-11
Integral type ranges set in mkLRange.C for JobNum: 22  <1-21|1-21>
 MakeJK  time:  CPU      10.63 s  wall      10.61 s
 Gradient of SCF Energy
            1           2           3           4
    1   0.0279581   0.0017037  -0.0352670   0.0056052
    2   0.0079434   0.0259850  -0.0358220   0.0018936
    3  -0.0037286  -0.0091333  -0.0057367   0.0185986
 Max gradient component =       3.582E-02
 RMS gradient           =       1.950E-02
drvman.C: 248: out of SCF_Grad for normal SCF gradient
 Gradient time:  CPU 26.99 s  wall 26.98 s
 ------------------------------------------------------------------------------
                     drvman        : Timing summary (seconds)
 ------------------------------------------------------------------------------
     job step          cpu (% of tot)      sys (% of tot)     wall (% of tot)
 ------------------------------------------------------------------------------
 ------------------------------------------------------------------------------
   Grand Totals     0.2699E+02          0.1600E-04          0.2698E+02
 ------------------------------------------------------------------------------
drvman_main.C: 77: out of DrvMan  Time for this dynamics step: 64.3 s (CPU) 64.3 s (wall)

TIME STEP #94 (t = 1860.000 a.u. = 44.99125 fs)
--------------------------------------
 Instantaneous Temperature = 1178.1 K
 ----------------------------------------------------------------
             Standard Nuclear Orientation (Angstroms)
    I     Atom           X                Y                Z
 ----------------------------------------------------------------
    1      Pt     -1.7005895206     2.5405479739     0.3789908496
    2      Pt      0.2369903209     0.8034485009     0.3314850075
    3      Pt      0.6168354326     3.2209845390     0.1864621052
    4      Pt     -0.4094462330     1.9528189862    -2.0589979621
 ----------------------------------------------------------------
 Nuclear Repulsion Energy =   391.9363038421 hartrees
 There are       36 alpha and       36 beta electrons

                       Distance Matrix (Angstroms)
             Pt(  1)   Pt(  2)   Pt(  3)
   Pt(  2)  2.602688
   Pt(  3)  2.422916  2.451488
   Pt(  4)  2.820685  2.730081  2.775534

 Applying Cartesian multipole field
    Component          Value
    ---------          -----
     (2,0,0)        1.00000E-11
     (0,2,0)        2.00000E-11
     (0,0,2)       -3.00000E-11
 Nucleus-field energy     =     0.0000000209 hartrees
 ENuRep (before)= 391.9363038421
 ENucField = 0.0000000209
 ENuRep (after) = 391.9363038629
 Job number = 2, Threshold = 1.00E-11
Integral type ranges set in mkLRange.C for JobNum: 2  <1-21|1-21>
Symmetry turned off temporarily
Symmetry turned back on
 Job number = 2, Threshold = 1.00E-11
Integral type ranges set in mkLRange.C for JobNum: 2  <1-21|1-21>
Symmetry turned off temporarily
Symmetry turned back on
Integral type ranges set in mkLRange.C for JobNum: 18  <1-21|22-39>
Integral type ranges set in mkLRange.C for JobNum: 18  <1-21|22-39>
 Job number = 11, Threshold = 1.00E-11
Integral type ranges set in mkLRange.C for JobNum: 11  <1-21|40-40>
 Smallest overlap matrix eigenvalue = 1.79E-03
 Multipole matrices computed through 2nd order
 Extrapolating the Fock matrix using 12 points and a 6th-order polynomial
 Alpha Fock matrix extrapolation
 Skip SCF guess (diagonalize extrapolated Fock matrix instead)
 SCF convergence criterion is 10**(-8)
 A restricted Hartree-Fock SCF calculation will be
 performed using Pulay DIIS extrapolation
 SCF converges when DIIS error is below 1.0E-08
Extrapolated Fock matrix used in lieu of Fock build
Fock build time:  0.00 s (CPU) 0.00 s (wall)
DIIS Errors:  Max 2.04E-03 RMS 1.59E-04

Current DIIS subspace size = 1
REM_GRID_RESTART_DIIS = 0

 ---------------------------------------
  Cycle       Energy         DIIS Error
 ---------------------------------------
    1   -1228.9427759214      1.59E-04  00000
Ite = 2 IFIte = 1 Thresh = 1.00e-11
Finding J and K together
 Job number = 22, Threshold = 1.00E-11
Integral type ranges set in mkLRange.C for JobNum: 22  <1-21|1-21>
