Process 0 of 1 is on qciep03 - thread support 0
initial socket setup ...start
initial socket setup ...done 
now start server 0 ... 
qciep03.tugraz.at 127.0.1
Q-Chem Developer Version! Running on 127.0.1.*
                  Welcome to Q-Chem
     A Quantum Leap Into The Future Of Chemistry


 Q-Chem 5.0, Q-Chem, Inc., Pleasanton, CA (2017)

 Yihan Shao,  Zhengting Gan,  E. Epifanovsky,  A. T. B. Gilbert,  M. Wormit,  
 J. Kussmann,  A. W. Lange,  A. Behn,  Jia Deng,  Xintian Feng,  D. Ghosh,  
 M. Goldey,  P. R. Horn,  L. D. Jacobson,  I. Kaliman,  T. Kus,  A. Landau,  
 Jie Liu,  E. I. Proynov,  R. M. Richard,  R. P. Steele,  E. J. Sundstrom,  
 H. L. Woodcock III,  P. M. Zimmerman,  D. Zuev,  B. Albrecht,  E. Alguire,  
 S. A. Baeppler,  D. Barton,  Z. Benda,  Y. A. Bernard,  E. J. Berquist,  
 K. B. Bravaya,  H. Burton,  D. Casanova,  Chun-Min Chang,  Yunqing Chen,  
 A. Chien,  K. D. Closser,  M. P. Coons,  S. Dasgupta,  A. L. Dempwolff,  
 M. Diedenhofen,  Hainam Do,  R. G. Edgar,  Po-Tung Fang,  S. Fatehi,  
 Qingguo Feng,  J. Fosso-Tande,  Qinghui Ge,  A. Ghysels,  G. Gidofalvi,  
 J. Gomes,  J. Gonthier,  A. Gunina,  M. W. D. Hanson-Heine,  
 P. H. P. Harbach,  A. W. Hauser,  J. E. Herr,  E. G. Hohenstein,  
 Z. C. Holden,  Kerwin Hui,  T.-C. Jagau,  Hyunjun Ji,  B. Kaduk,  
 K. Khistyaev,  Jaehoon Kim,  P. Klunzinger,  K. Koh,  D. Kosenkov,  
 L. Koulias,  T. Kowalczyk,  C. M. Krauter,  A. Kunitsa,  Ka Un Lao,  
 A. Laurent,  K. V. Lawler,  Joonho Lee,  D. Lefrancois,  S. Lehtola,  
 D. S. Levine,  Yi-Pei Li,  You-Sheng Lin,  Fenglai Liu,  E. Livshits,  
 A. Luenser,  P. Manohar,  E. Mansoor,  S. F. Manzer,  Shan-Ping Mao,  
 Yuezhi Mao,  N. Mardirossian,  A. V. Marenich,  T. Markovich,  
 L. A. Martinez-Martinez,  S. A. Maurer,  N. J. Mayhall,  S. C. McKenzie,  
 J.-M. Mewes,  A. F. Morrison,  J. W. Mullinax,  K. Nanda,  
 T. S. Nguyen-Beck,  R. Olivares-Amaya,  J. A. Parkhill,  T. M. Perrine,  
 F. Plasser,  S. Prager,  A. Prociuk,  E. Ramos,  D. R. Rehn,  F. Rob,  
 M. Schneider,  N. Sergueev,  S. M. Sharada,  S. Sharma,  D. W. Small,  
 T. Stauch,  T. Stein,  Yu-Chuan Su,  A. J. W. Thom,  A. Tkatchenko,  
 T. Tsuchimochi,  L. Vogt,  O. Vydrov,  M. A. Watson,  J. Wenzel,  
 M. de Wergifosse,  T. A. Wesolowski,  A. White,  J. Witte,  A. Yamada,  
 Jun Yang,  K. Yao,  S. Yeganeh,  S. R. Yost,  Zhi-Qiang You,  A. Zech,  
 Igor Ying Zhang,  Xing Zhang,  Yan Zhao,  Ying Zhu,  B. R. Brooks,  
 G. K. L. Chan,  C. J. Cramer,  M. S. Gordon,  W. J. Hehre,  A. Klamt,  
 M. W. Schmidt,  C. D. Sherrill,  D. G. Truhlar,  A. Aspuru-Guzik,  R. Baer,  
 A. T. Bell,  N. A. Besley,  Jeng-Da Chai,  R. A. DiStasio Jr.,  A. Dreuw,  
 B. D. Dunietz,  T. R. Furlani,  Chao-Ping Hsu,  Yousung Jung,  Jing Kong,  
 D. S. Lambrecht,  WanZhen Liang,  C. Ochsenfeld,  V. A. Rassolov,  
 L. V. Slipchenko,  J. E. Subotnik,  T. Van Voorhis,  J. M. Herbert,  
 A. I. Krylov,  P. M. W. Gill,  M. Head-Gordon

 Contributors to earlier versions of Q-Chem not listed above: 
 R. D. Adamson,  B. Austin,  J. Baker,  G. J. O. Beran,  K. Brandhorst,  
 S. T. Brown,  E. F. C. Byrd,  A. K. Chakraborty,  C.-L. Cheng,  
 Siu Hung Chien,  D. M. Chipman,  D. L. Crittenden,  H. Dachsel,  
 R. J. Doerksen,  A. D. Dutoi,  L. Fusti-Molnar,  W. A. Goddard III,  
 A. Golubeva-Zadorozhnaya,  S. R. Gwaltney,  G. Hawkins,  A. Heyden,  
 S. Hirata,  G. Kedziora,  F. J. Keil,  C. Kelley,  Jihan Kim,  R. A. King,  
 R. Z. Khaliullin,  P. P. Korambath,  W. Kurlancheek,  A. M. Lee,  M. S. Lee,  
 S. V. Levchenko,  Ching Yeh Lin,  D. Liotard,  R. C. Lochan,  I. Lotan,  
 P. E. Maslen,  N. Nair,  D. P. O'Neill,  D. Neuhauser,  E. Neuscamman,  
 C. M. Oana,  R. Olson,  B. Peters,  R. Peverati,  P. A. Pieniazek,  
 Y. M. Rhee,  J. Ritchie,  M. A. Rohrdanz,  E. Rosta,  N. J. Russ,  
 H. F. Schaefer III,  N. E. Schultz,  N. Shenvi,  A. C. Simmonett,  A. Sodt,  
 D. Stuck,  K. S. Thanthiriwatte,  V. Vanovschi,  Tao Wang,  A. Warshel,  
 C. F. Williams,  Q. Wu,  X. Xu,  W. Zhang

 Please cite Q-Chem as follows:
 Y. Shao et al., Mol. Phys. 113, 184-215 (2015)
 DOI: 10.1080/00268976.2014.952696

 Q-Chem 5.0.2 for Intel X86 EM64T Linux

 Parts of Q-Chem use Armadillo 5.200.1 (Boston Tea Smuggler).
 http://arma.sourceforge.net/

 Q-Chem begins on Thu Feb  1 12:08:28 2018  


Host: 0

     Scratch files written to /home/jcartus/scratch/32_trichlorometOH-wat_mono1.dir//
 Using version located at /usr/local/qchem/bin/qchem

 Parallel job on  1  processors

Total Memory Limit in MB = 2000
Mega-Array Size in MB = 192

Checking the input file for inconsistencies... 	...done.
Finally everything over in PARseQInput

--------------------------------------------------------------
User input:
--------------------------------------------------------------
$rem
SCF_PRINT                     1
BASIS                         6-311++g**
SCF_SAVE_MATRICES             1
SCF_CONVERGENCE               5
SCF_FINAL_PRINT               1
METHOD                        hf
JOBTYPE                       sp
$end

$molecule
0 1
O    -0.778073626    0.205937567    -0.003744167
H    0.20462177    0.306150037    -0.005250247
C    -1.064673043    -1.099865265    -3.7626e-05
Cl    -2.818149715    -1.288073131    0.00234012
Cl    -0.388554792    -1.946140752    -1.447422763
Cl    -0.385461107    -1.938612521    1.450299192
$end


--------------------------------------------------------------
 ----------------------------------------------------------------
             Standard Nuclear Orientation (Angstroms)
    I     Atom           X                Y                Z
 ----------------------------------------------------------------
    1      O      -0.0818110728     0.0000666711     1.6412348047
    2      H       0.8437532110     0.0000098997     1.9862939329
    3      C      -0.0294657083     0.0000194794     0.3053703053
    4      Cl     -1.6786285946     0.0004539850    -0.3194255650
    5      Cl      0.8393539764     1.4486202270    -0.3387958641
    6      Cl      0.8385410665    -1.4491130441    -0.3387429357
 ----------------------------------------------------------------
 Molecular Point Group                 C1    NOp =  1
 Largest Abelian Subgroup              C1    NOp =  1
 Nuclear Repulsion Energy =   365.9412778898 hartrees
 There are       33 alpha and       33 beta electrons
 Requested basis set is 6-311++G(d,p)
 There are 56 shells and 141 basis functions

 Total QAlloc Memory Limit   2000 MB
 Mega-Array Size       188 MB
 MEM_STATIC part       192 MB

finished with qalloc call

                       Distance Matrix (Angstroms)
             O (  1)   H (  2)   C (  3)   Cl(  4)   Cl(  5)
   H (  2)  0.987793
   C (  3)  1.336890  1.894206
   Cl(  4)  2.528639  3.417419  1.763550
   Cl(  5)  2.620567  2.739440  1.807828  2.904789
   Cl(  6)  2.620588  2.739668  1.807845  2.904782  2.897733

 Job number = 2, Threshold = 1.00E-08
Integral type ranges set in mkLRange.C for JobNum: 2  <1-21|1-21>
Symmetry turned off temporarily
 Using the largest function pair in Schwarz integrals
Total number of integrals generated =          135764
Symmetry turned back on
 A cutoff of  1.0D-08 yielded   1343 shell pairs
 There are      9226 function pairs (      9926 Cartesian)
 Job number = 11, Threshold = 1.00E-08
Integral type ranges set in mkLRange.C for JobNum: 11  <1-21|22-22>
Total number of integrals generated =           59400
 Smallest overlap matrix eigenvalue = 7.00E-05

 Q-Chem warning in module /usr/local/qchem/stvman/mkSTV.C, line 295:

 Overlap eigenvalue is smaller than square root of threshold

 Multipole matrices computed through 2nd order

 Scale SEOQF with 1.000000e-01/1.000000e-01/1.000000e-01

 Standard Electronic Orientation quadrupole field applied
 Nucleus-field energy     =     0.0000000043 hartrees
 ENuRep (before)= 365.9412778898
 ENucField = 0.0000000043
 ENuRep (after) = 365.9412778941
 Guess from superposition of atomic densities
 Warning:  Energy on first SCF cycle will be non-variational
 SAD guess density has 66.000000 electrons

 ==================================================
    GEN_SCFMAN: A general SCF calculation manager  
                                                   
    Authors:                                       
        -- Eric Jon Sundstrom 2008-2014            
        -- Paul Horn 2010-2015                     
        -- Yuezhi Mao 2012-                        
        -- Dmitri Zuev 2014                        
        -- Alec White 2015-                        
        -- David Stuck 2015                        
        -- Shaama M.S. 2015                        
        -- Shane Yost 2015-                         
        -- Joonho Lee 2016-                        
        -- David Small 2016-                       
        -- Daniel Levine 2016-                     
        -- Susi Lehtola 2017-                      
        -- Hugh Burton 2017-                       
 ==================================================
 Hartree-Fock
Finding J and K together
 Job number = 22, Threshold = 1.00E-08
Integral type ranges set in mkLRange.C for JobNum: 22  <1-21|1-21>
 MakeJK  time:  CPU       2.77 s  wall       2.80 s
 HF Exchange:              -96.49750325783543
 One-Electron:             -2789.15545654021344
 Total Coulomb:            1026.90178454415900
 Nuclear repulsion:        365.94127789413858
 A restricted SCF calculation will be
 performed using DIIS
 SCF converges when DIIS error is below 1.0e-05
 ---------------------------------------
  Cycle       Energy         DIIS error
 ---------------------------------------
Finding J and K together
 Job number = 22, Threshold = 1.00E-08
Integral type ranges set in mkLRange.C for JobNum: 22  <1-21|1-21>
 MakeJK  time:  CPU       7.03 s  wall       7.27 s
 HF Exchange:              -96.45068915481329
 One-Electron:             -2786.66109519304700
 Total Coulomb:            1025.51513521813285
 Nuclear repulsion:        365.94127789413858
    1   -1492.8098973598      4.56e-02  
Finding J and K together
 Job number = 22, Threshold = 1.00E-08
Integral type ranges set in mkLRange.C for JobNum: 22  <1-21|1-21>
 MakeJK  time:  CPU       7.22 s  wall       7.54 s
 HF Exchange:              -96.39566319461848
 One-Electron:             -2791.44013187430892
 Total Coulomb:            1030.15899529503486
 Nuclear repulsion:        365.94127789413858
    2   -1491.6553712356      8.18e-03  
Finding J and K together
 Job number = 22, Threshold = 1.00E-08
Integral type ranges set in mkLRange.C for JobNum: 22  <1-21|1-21>
 MakeJK  time:  CPU       8.80 s  wall      10.53 s
 HF Exchange:              -96.43898817604106
 One-Electron:             -2789.36337693304404
 Total Coulomb:            1028.02555803493647
 Nuclear repulsion:        365.94127789413858
    3   -1491.7355218798      6.94e-03  
Finding J and K together
 Job number = 22, Threshold = 1.00E-08
Integral type ranges set in mkLRange.C for JobNum: 22  <1-21|1-21>
 MakeJK  time:  CPU       8.90 s  wall       9.09 s
 HF Exchange:              -96.45691275876327
 One-Electron:             -2789.45603051902526
 Total Coulomb:            1028.13433481035304
 Nuclear repulsion:        365.94127789413858
    4   -1491.8355291800      5.57e-04  
Finding J and K together
 Job number = 22, Threshold = 1.00E-08
Integral type ranges set in mkLRange.C for JobNum: 22  <1-21|1-21>
 MakeJK  time:  CPU       8.97 s  wall       9.45 s
 HF Exchange:              -96.45583345093860
 One-Electron:             -2789.40864923565596
 Total Coulomb:            1028.08570606859985
 Nuclear repulsion:        365.94127789413858
    5   -1491.8373305733      1.79e-04  
Finding J and K together
 Job number = 22, Threshold = 1.00E-08
Integral type ranges set in mkLRange.C for JobNum: 22  <1-21|1-21>
 MakeJK  time:  CPU       8.50 s  wall       8.50 s
 HF Exchange:              -96.45837897070791
 One-Electron:             -2789.42738737122590
 Total Coulomb:            1028.10697268727517
 Nuclear repulsion:        365.94127789413858
    6   -1491.8374987239      6.40e-05  
Finding J and K together
 Job number = 22, Threshold = 1.00E-08
Integral type ranges set in mkLRange.C for JobNum: 22  <1-21|1-21>
 MakeJK  time:  CPU       8.34 s  wall       8.35 s
 HF Exchange:              -96.45830102375345
 One-Electron:             -2789.42553099380120
 Total Coulomb:            1028.10503658061180
 Nuclear repulsion:        365.94127789413858
    7   -1491.8375157605      2.03e-05  
    8   -1491.8375175428      4.47e-06  Convergence criterion met
 ---------------------------------------
 SCF time:   CPU 61.18s  wall 64.00s 
 Total energy in the final basis set =    -1491.8375175428
 HF Exchange:              -96.45830102375345
 One-Electron:             -2789.42553099380120
 Total Coulomb:            1028.10503658061180
 Nuclear repulsion:        365.94127789413858
Wall  1 = 64
Clock 1 = 61.27664184570312
 ==================================================
                  Done GEN_SCFMAN                  
 ==================================================

Symmetry turned off temporarily

 --------------------------------------------------------------

                    Orbital Energies (a.u.)
 --------------------------------------------------------------

 Alpha MOs
 -- Occupied --
*******-104.865-104.865 -20.647 -11.504 -10.595 -10.592 -10.592
 -8.063  -8.060  -8.060  -8.060  -8.060  -8.057  -8.057  -8.057
 -8.057  -1.489  -1.216  -1.124  -1.117  -0.884  -0.756  -0.695
 -0.694  -0.586  -0.549  -0.513  -0.504  -0.490  -0.468  -0.465
 -0.454
 -- Virtual --
  0.041   0.076   0.093   0.094   0.106   0.124   0.129   0.138
  0.138   0.141   0.170   0.179   0.179   0.183   0.198   0.198
  0.217   0.246   0.265   0.270   0.327   0.331   0.374   0.376
  0.378   0.451   0.530   0.530   0.576   0.587   0.593   0.598
  0.616   0.616   0.627   0.627   0.663   0.720   0.770   0.966
  0.972   1.033   1.091   1.107   1.115   1.115   1.128   1.132
  1.137   1.140   1.150   1.166   1.266   1.274   1.297   1.343
  1.362   1.418   1.421   1.431   1.555   1.618   1.706   1.715
  1.836   1.921   2.064   2.077   2.128   2.312   2.594   2.603
  2.606   2.637   2.652   2.662   2.735   2.750   2.879   2.979
  3.220   3.292   3.321   3.422   3.595   3.690   4.121   4.244
  5.548   5.837   6.081  10.330  10.408  10.427  24.531  26.674
 26.696  26.706  26.747  26.757  26.771  27.119  27.158  27.546
 51.542 219.181 219.264 219.282
 --------------------------------------------------------------

          Ground-State Mulliken Net Atomic Charges

     Atom                 Charge (a.u.)
  ----------------------------------------
      1 O                    -0.012440
      2 H                     0.307971
      3 C                    -0.613412
      4 Cl                    0.183395
      5 Cl                    0.067243
      6 Cl                    0.067242
  ----------------------------------------
  Sum of atomic charges =     0.000000

 -----------------------------------------------------------------
                    Cartesian Multipole Moments
 -----------------------------------------------------------------
    Charge (ESU x 10^10)
                 0.0000
    Dipole Moment (Debye)
         X       1.2931      Y       0.0001      Z       1.0912
       Tot       1.6920
    Quadrupole Moments (Debye-Ang)
        XX     -48.4429     XY      -0.0001     YY     -50.9024
        XZ       4.0406     YZ      -0.0003     ZZ     -47.9821
    Octopole Moments (Debye-Ang^2)
       XXX      -3.9044    XXY       0.0033    XYY       3.1073
       YYY      -0.0024    XXZ       1.7034    XYZ      -0.0001
       YYZ      -1.9169    XZZ       8.2905    YZZ      -0.0001
       ZZZ       9.1046
    Hexadecapole Moments (Debye-Ang^3)
      XXXX    -358.3961   XXXY      -0.0005   XXYY    -120.6647
      XYYY      -0.0006   YYYY    -361.7813   XXXZ      10.4139
      XXYZ      -0.0048   XYYZ      -4.9720   YYYZ       0.0044
      XXZZ     -85.1161   XYZZ       0.0002   YYZZ     -92.4827
      XZZZ      18.9575   YZZZ      -0.0008   ZZZZ    -167.5478
 -----------------------------------------------------------------
 Mayer SCF Bond Order, atomic valence on the diagonal:

            1           2           3           4           5           6
    1   1.5044512   0.8463789   1.1202597  -0.1949880  -0.1335871  -0.1336123
    2   0.8463789   0.9451396   0.0917291   0.0176883  -0.0053117  -0.0053450
    3   1.1202597   0.0917291   4.6058835   1.1480047   1.1229189   1.1229711
    4  -0.1949880   0.0176883   1.1480047   1.0387977   0.0340414   0.0340513
    5  -0.1335871  -0.0053117   1.1229189   0.0340414   1.0746063   0.0565447
    6  -0.1336123  -0.0053450   1.1229711   0.0340513   0.0565447   1.0746097


 JobOver = TRUE
Archival summary:
1\1\qciep03\SP\HF\BasisUnspecified\l3111\jcartus\ThuFeb112:09:322018ThuFeb112:09:322018\0\\#,HF,BasisUnspecified,\\0,1\Cl\C,1,1.76355\O,2,1.33689,1,108.506\H,3,0.987793,2,108.202,1,-179.989,0\Cl,2,1.80783,1,108.843,3,-122.133,0\Cl,2,1.80784,1,108.842,3,122.133,0\\HF=-1491.83752\\@

 Total job time:  64.69s(wall), 61.63s(cpu) 
 Thu Feb  1 12:09:32 2018

        *************************************************************
        *                                                           *
        *  Thank you very much for using Q-Chem.  Have a nice day.  *
        *                                                           *
        *************************************************************


*** MISSION COMPLETED -- STARFLEET OUT ***

0 sent ACK to 0 
now end server 0 ... 
