Process 0 of 1 is on qciep03 - thread support 0
initial socket setup ...start
initial socket setup ...done 
now start server 0 ... 
qciep03.tugraz.at 127.0.1
Q-Chem Developer Version! Running on 127.0.1.*
                  Welcome to Q-Chem
     A Quantum Leap Into The Future Of Chemistry


 Q-Chem 5.0, Q-Chem, Inc., Pleasanton, CA (2017)

 Yihan Shao,  Zhengting Gan,  E. Epifanovsky,  A. T. B. Gilbert,  M. Wormit,  
 J. Kussmann,  A. W. Lange,  A. Behn,  Jia Deng,  Xintian Feng,  D. Ghosh,  
 M. Goldey,  P. R. Horn,  L. D. Jacobson,  I. Kaliman,  T. Kus,  A. Landau,  
 Jie Liu,  E. I. Proynov,  R. M. Richard,  R. P. Steele,  E. J. Sundstrom,  
 H. L. Woodcock III,  P. M. Zimmerman,  D. Zuev,  B. Albrecht,  E. Alguire,  
 S. A. Baeppler,  D. Barton,  Z. Benda,  Y. A. Bernard,  E. J. Berquist,  
 K. B. Bravaya,  H. Burton,  D. Casanova,  Chun-Min Chang,  Yunqing Chen,  
 A. Chien,  K. D. Closser,  M. P. Coons,  S. Dasgupta,  A. L. Dempwolff,  
 M. Diedenhofen,  Hainam Do,  R. G. Edgar,  Po-Tung Fang,  S. Fatehi,  
 Qingguo Feng,  J. Fosso-Tande,  Qinghui Ge,  A. Ghysels,  G. Gidofalvi,  
 J. Gomes,  J. Gonthier,  A. Gunina,  M. W. D. Hanson-Heine,  
 P. H. P. Harbach,  A. W. Hauser,  J. E. Herr,  E. G. Hohenstein,  
 Z. C. Holden,  Kerwin Hui,  T.-C. Jagau,  Hyunjun Ji,  B. Kaduk,  
 K. Khistyaev,  Jaehoon Kim,  P. Klunzinger,  K. Koh,  D. Kosenkov,  
 L. Koulias,  T. Kowalczyk,  C. M. Krauter,  A. Kunitsa,  Ka Un Lao,  
 A. Laurent,  K. V. Lawler,  Joonho Lee,  D. Lefrancois,  S. Lehtola,  
 D. S. Levine,  Yi-Pei Li,  You-Sheng Lin,  Fenglai Liu,  E. Livshits,  
 A. Luenser,  P. Manohar,  E. Mansoor,  S. F. Manzer,  Shan-Ping Mao,  
 Yuezhi Mao,  N. Mardirossian,  A. V. Marenich,  T. Markovich,  
 L. A. Martinez-Martinez,  S. A. Maurer,  N. J. Mayhall,  S. C. McKenzie,  
 J.-M. Mewes,  A. F. Morrison,  J. W. Mullinax,  K. Nanda,  
 T. S. Nguyen-Beck,  R. Olivares-Amaya,  J. A. Parkhill,  T. M. Perrine,  
 F. Plasser,  S. Prager,  A. Prociuk,  E. Ramos,  D. R. Rehn,  F. Rob,  
 M. Schneider,  N. Sergueev,  S. M. Sharada,  S. Sharma,  D. W. Small,  
 T. Stauch,  T. Stein,  Yu-Chuan Su,  A. J. W. Thom,  A. Tkatchenko,  
 T. Tsuchimochi,  L. Vogt,  O. Vydrov,  M. A. Watson,  J. Wenzel,  
 M. de Wergifosse,  T. A. Wesolowski,  A. White,  J. Witte,  A. Yamada,  
 Jun Yang,  K. Yao,  S. Yeganeh,  S. R. Yost,  Zhi-Qiang You,  A. Zech,  
 Igor Ying Zhang,  Xing Zhang,  Yan Zhao,  Ying Zhu,  B. R. Brooks,  
 G. K. L. Chan,  C. J. Cramer,  M. S. Gordon,  W. J. Hehre,  A. Klamt,  
 M. W. Schmidt,  C. D. Sherrill,  D. G. Truhlar,  A. Aspuru-Guzik,  R. Baer,  
 A. T. Bell,  N. A. Besley,  Jeng-Da Chai,  R. A. DiStasio Jr.,  A. Dreuw,  
 B. D. Dunietz,  T. R. Furlani,  Chao-Ping Hsu,  Yousung Jung,  Jing Kong,  
 D. S. Lambrecht,  WanZhen Liang,  C. Ochsenfeld,  V. A. Rassolov,  
 L. V. Slipchenko,  J. E. Subotnik,  T. Van Voorhis,  J. M. Herbert,  
 A. I. Krylov,  P. M. W. Gill,  M. Head-Gordon

 Contributors to earlier versions of Q-Chem not listed above: 
 R. D. Adamson,  B. Austin,  J. Baker,  G. J. O. Beran,  K. Brandhorst,  
 S. T. Brown,  E. F. C. Byrd,  A. K. Chakraborty,  C.-L. Cheng,  
 Siu Hung Chien,  D. M. Chipman,  D. L. Crittenden,  H. Dachsel,  
 R. J. Doerksen,  A. D. Dutoi,  L. Fusti-Molnar,  W. A. Goddard III,  
 A. Golubeva-Zadorozhnaya,  S. R. Gwaltney,  G. Hawkins,  A. Heyden,  
 S. Hirata,  G. Kedziora,  F. J. Keil,  C. Kelley,  Jihan Kim,  R. A. King,  
 R. Z. Khaliullin,  P. P. Korambath,  W. Kurlancheek,  A. M. Lee,  M. S. Lee,  
 S. V. Levchenko,  Ching Yeh Lin,  D. Liotard,  R. C. Lochan,  I. Lotan,  
 P. E. Maslen,  N. Nair,  D. P. O'Neill,  D. Neuhauser,  E. Neuscamman,  
 C. M. Oana,  R. Olson,  B. Peters,  R. Peverati,  P. A. Pieniazek,  
 Y. M. Rhee,  J. Ritchie,  M. A. Rohrdanz,  E. Rosta,  N. J. Russ,  
 H. F. Schaefer III,  N. E. Schultz,  N. Shenvi,  A. C. Simmonett,  A. Sodt,  
 D. Stuck,  K. S. Thanthiriwatte,  V. Vanovschi,  Tao Wang,  A. Warshel,  
 C. F. Williams,  Q. Wu,  X. Xu,  W. Zhang

 Please cite Q-Chem as follows:
 Y. Shao et al., Mol. Phys. 113, 184-215 (2015)
 DOI: 10.1080/00268976.2014.952696

 Q-Chem 5.0.2 for Intel X86 EM64T Linux

 Parts of Q-Chem use Armadillo 5.200.1 (Boston Tea Smuggler).
 http://arma.sourceforge.net/

 Q-Chem begins on Thu Feb  1 12:18:45 2018  


Host: 0

     Scratch files written to /home/jcartus/scratch/08_trichloromethane-methane_mono1.dir//
 Using version located at /usr/local/qchem/bin/qchem

 Parallel job on  1  processors

Total Memory Limit in MB = 2000
Mega-Array Size in MB = 192

Checking the input file for inconsistencies... 	...done.
Finally everything over in PARseQInput

--------------------------------------------------------------
User input:
--------------------------------------------------------------
$rem
SCF_PRINT                     1
BASIS                         6-311++g**
SCF_SAVE_MATRICES             1
SCF_CONVERGENCE               5
SCF_FINAL_PRINT               1
METHOD                        hf
JOBTYPE                       sp
$end

$molecule
0 1
C    -2.8509e-05    -0.000461929    2.158149022
Cl    -1.454063734    0.838777303    1.616235012
Cl    1.454144531    0.838659727    1.616208515
Cl    -8.74e-05    -1.679795034    1.617802938
H    5.696e-06    0.000267325    3.239305949
$end


--------------------------------------------------------------
 ----------------------------------------------------------------
             Standard Nuclear Orientation (Angstroms)
    I     Atom           X                Y                Z
 ----------------------------------------------------------------
    1      C       0.0000307450     0.0000093109     0.4574182408
    2      Cl      1.2780406735    -1.0889285622    -0.0839842430
    3      Cl     -1.5820925299    -0.5623230307    -0.0839801130
    4      Cl      0.3040410544     1.6512504459    -0.0839818121
    5      H      -0.0000008375    -0.0000363654     1.5385754128
 ----------------------------------------------------------------
 Molecular Point Group                 C1    NOp =  1
 Largest Abelian Subgroup              C1    NOp =  1
 Nuclear Repulsion Energy =   264.0442098880 hartrees
 There are       29 alpha and       29 beta electrons
 Requested basis set is 6-311++G(d,p)
 There are 50 shells and 119 basis functions

 Total QAlloc Memory Limit   2000 MB
 Mega-Array Size       188 MB
 MEM_STATIC part       192 MB

finished with qalloc call

                       Distance Matrix (Angstroms)
             C (  1)   Cl(  2)   Cl(  3)   Cl(  4)
   Cl(  2)  1.764146
   Cl(  3)  1.764212  2.908208
   Cl(  4)  1.764124  2.908136  2.908162
   H (  5)  1.081157  2.334904  2.334923  2.334926

 Job number = 2, Threshold = 1.00E-08
Integral type ranges set in mkLRange.C for JobNum: 2  <1-21|1-21>
Symmetry turned off temporarily
 Using the largest function pair in Schwarz integrals
Total number of integrals generated =           90309
Symmetry turned back on
 A cutoff of  1.0D-08 yielded   1098 shell pairs
 There are      6685 function pairs (      7173 Cartesian)
 Job number = 11, Threshold = 1.00E-08
Integral type ranges set in mkLRange.C for JobNum: 11  <1-21|22-22>
Total number of integrals generated =           35790
 Smallest overlap matrix eigenvalue = 1.01E-04
 Multipole matrices computed through 2nd order

 Scale SEOQF with 1.000000e-01/1.000000e-01/1.000000e-01

 Standard Electronic Orientation quadrupole field applied
 Nucleus-field energy     =     0.0000000073 hartrees
 ENuRep (before)= 264.0442098880
 ENucField = 0.0000000073
 ENuRep (after) = 264.0442098953
 Guess from superposition of atomic densities
 Warning:  Energy on first SCF cycle will be non-variational
 SAD guess density has 58.000000 electrons

 ==================================================
    GEN_SCFMAN: A general SCF calculation manager  
                                                   
    Authors:                                       
        -- Eric Jon Sundstrom 2008-2014            
        -- Paul Horn 2010-2015                     
        -- Yuezhi Mao 2012-                        
        -- Dmitri Zuev 2014                        
        -- Alec White 2015-                        
        -- David Stuck 2015                        
        -- Shaama M.S. 2015                        
        -- Shane Yost 2015-                         
        -- Joonho Lee 2016-                        
        -- David Small 2016-                       
        -- Daniel Levine 2016-                     
        -- Susi Lehtola 2017-                      
        -- Hugh Burton 2017-                       
 ==================================================
 Hartree-Fock
Finding J and K together
 Job number = 22, Threshold = 1.00E-08
Integral type ranges set in mkLRange.C for JobNum: 22  <1-21|1-21>
 MakeJK  time:  CPU       2.77 s  wall       2.87 s
 HF Exchange:              -88.30245634451303
 One-Electron:             -2482.52474762929978
 Total Coulomb:            889.06200479524136
 Nuclear repulsion:        264.04420989531843
 A restricted SCF calculation will be
 performed using DIIS
 SCF converges when DIIS error is below 1.0e-05
 ---------------------------------------
  Cycle       Energy         DIIS error
 ---------------------------------------
Finding J and K together
 Job number = 22, Threshold = 1.00E-08
Integral type ranges set in mkLRange.C for JobNum: 22  <1-21|1-21>
 MakeJK  time:  CPU       5.53 s  wall       5.56 s
 HF Exchange:              -88.15123526430229
 One-Electron:             -2480.68853502941556
 Total Coulomb:            887.95811727997125
 Nuclear repulsion:        264.04420989531843
    1   -1417.7209892833      4.54e-02  
Finding J and K together
 Job number = 22, Threshold = 1.00E-08
Integral type ranges set in mkLRange.C for JobNum: 22  <1-21|1-21>
 MakeJK  time:  CPU       5.57 s  wall       5.64 s
 HF Exchange:              -88.21224751566194
 One-Electron:             -2484.18293328484242
 Total Coulomb:            891.45510718762523
 Nuclear repulsion:        264.04420989531843
    2   -1416.8374431184      7.53e-03  
Finding J and K together
 Job number = 22, Threshold = 1.00E-08
Integral type ranges set in mkLRange.C for JobNum: 22  <1-21|1-21>
 MakeJK  time:  CPU       5.64 s  wall       5.74 s
 HF Exchange:              -88.21412070740875
 One-Electron:             -2482.92599262054819
 Total Coulomb:            890.13693129617900
 Nuclear repulsion:        264.04420989531843
    3   -1416.8958637176      6.28e-03  
Finding J and K together
 Job number = 22, Threshold = 1.00E-08
Integral type ranges set in mkLRange.C for JobNum: 22  <1-21|1-21>
 MakeJK  time:  CPU       5.58 s  wall       5.68 s
 HF Exchange:              -88.22087285790033
 One-Electron:             -2482.88106275259588
 Total Coulomb:            890.09724745612743
 Nuclear repulsion:        264.04420989531843
    4   -1416.9589721365      5.60e-04  
Finding J and K together
 Job number = 22, Threshold = 1.00E-08
Integral type ranges set in mkLRange.C for JobNum: 22  <1-21|1-21>
 MakeJK  time:  CPU       5.59 s  wall       5.64 s
 HF Exchange:              -88.22403343216759
 One-Electron:             -2482.90725542282053
 Total Coulomb:            890.12650811225217
 Nuclear repulsion:        264.04420989531843
    5   -1416.9604782591      1.23e-04  
Finding J and K together
 Job number = 22, Threshold = 1.00E-08
Integral type ranges set in mkLRange.C for JobNum: 22  <1-21|1-21>
 MakeJK  time:  CPU       5.67 s  wall       5.72 s
 HF Exchange:              -88.22366651660518
 One-Electron:             -2482.89904543812918
 Total Coulomb:            890.11792659026844
 Nuclear repulsion:        264.04420989531843
    6   -1416.9605708474      3.09e-05  
    7   -1416.9605754691      9.45e-06  Convergence criterion met
 ---------------------------------------
 SCF time:   CPU 36.76s  wall 37.00s 
 Total energy in the final basis set =    -1416.9605754691
 HF Exchange:              -88.22366651660518
 One-Electron:             -2482.89904543812918
 Total Coulomb:            890.11792659026844
 Nuclear repulsion:        264.04420989531843
Wall  1 = 37
Clock 1 = 36.83003234863281
 ==================================================
                  Done GEN_SCFMAN                  
 ==================================================

Symmetry turned off temporarily

 --------------------------------------------------------------

                    Orbital Energies (a.u.)
 --------------------------------------------------------------

 Alpha MOs
 -- Occupied --
*******-104.867-104.867 -11.438 -10.594 -10.594 -10.594  -8.062
 -8.062  -8.062  -8.058  -8.058  -8.058  -8.058  -8.058  -8.058
 -1.250  -1.120  -1.120  -0.880  -0.688  -0.632  -0.631  -0.507
 -0.507  -0.472  -0.472  -0.469  -0.454
 -- Virtual --
  0.044   0.080   0.090   0.090   0.113   0.132   0.132   0.140
  0.140   0.154   0.172   0.172   0.180   0.192   0.213   0.214
  0.214   0.227   0.262   0.262   0.350   0.522   0.522   0.522
  0.586   0.586   0.587   0.605   0.605   0.623   0.628   0.666
  0.666   0.834   0.932   0.932   1.004   1.107   1.107   1.116
  1.124   1.124   1.136   1.141   1.141   1.149   1.164   1.237
  1.237   1.372   1.372   1.415   1.503   1.661   1.661   1.916
  2.087   2.087   2.172   2.173   2.602   2.605   2.608   2.608
  2.673   2.673   2.744   2.744   2.796   2.827   3.047   3.445
  3.445   3.739  10.334  10.416  10.416  24.617  26.665  26.665
 26.703  26.730  26.738  26.738  27.071  27.071  27.503 219.187
219.269 219.269
 --------------------------------------------------------------

          Ground-State Mulliken Net Atomic Charges

     Atom                 Charge (a.u.)
  ----------------------------------------
      1 C                    -0.606322
      2 Cl                    0.122929
      3 Cl                    0.122866
      4 Cl                    0.122931
      5 H                     0.237596
  ----------------------------------------
  Sum of atomic charges =     0.000000

 -----------------------------------------------------------------
                    Cartesian Multipole Moments
 -----------------------------------------------------------------
    Charge (ESU x 10^10)
                 0.0000
    Dipole Moment (Debye)
         X       0.0003      Y       0.0002      Z       1.3249
       Tot       1.3249
    Quadrupole Moments (Debye-Ang)
        XX     -45.2934     XY      -0.0002     YY     -45.2928
        XZ      -0.0000     YZ      -0.0001     ZZ     -42.5257
    Octopole Moments (Debye-Ang^2)
       XXX      -1.8762    XXY      -3.0874    XYY       1.8775
       YYY       3.0885    XXZ      -2.7844    XYZ       0.0000
       YYZ      -2.7845    XZZ       0.0002    YZZ       0.0001
       ZZZ       3.6440
    Hexadecapole Moments (Debye-Ang^3)
      XXXX    -356.6708   XXXY      -0.0007   XXYY    -118.8871
      XYYY      -0.0007   YYYY    -356.6497   XXXZ       2.2515
      XXYZ       3.7035   XYYZ      -2.2517   YYYZ      -3.7038
      XXZZ     -74.0864   XYZZ      -0.0001   YYZZ     -74.0827
      XZZZ      -0.0001   YZZZ      -0.0003   ZZZZ     -61.4571
 -----------------------------------------------------------------
 Mayer SCF Bond Order, atomic valence on the diagonal:

            1           2           3           4           5
    1   4.1206740   1.0189059   1.0187577   1.0188185   1.0641919
    2   1.0189059   1.0260134   0.0281797   0.0281779  -0.0492502
    3   1.0187577   0.0281797   1.0258889   0.0281916  -0.0492401
    4   1.0188185   0.0281779   0.0281916   1.0259457  -0.0492423
    5   1.0641919  -0.0492502  -0.0492401  -0.0492423   0.9164593


 JobOver = TRUE
Archival summary:
1\1\qciep03\SP\HF\BasisUnspecified\l311\jcartus\ThuFeb112:19:232018ThuFeb112:19:232018\0\\#,HF,BasisUnspecified,\\0,1\Cl\C,1,1.76412\H,2,1.08116,1,107.875\Cl,2,1.76415,1,111.023,3,-117.995,0\Cl,2,1.76421,1,111.021,3,117.99,0\\HF=-1416.96058\\@

 Total job time:  37.75s(wall), 37.18s(cpu) 
 Thu Feb  1 12:19:23 2018

        *************************************************************
        *                                                           *
        *  Thank you very much for using Q-Chem.  Have a nice day.  *
        *                                                           *
        *************************************************************


*** MISSION COMPLETED -- STARFLEET OUT ***

0 sent ACK to 0 
now end server 0 ... 
