Process 0 of 1 is on qciep03 - thread support 0
initial socket setup ...start
initial socket setup ...done 
now start server 0 ... 
qciep03.tugraz.at 127.0.1
Q-Chem Developer Version! Running on 127.0.1.*
                  Welcome to Q-Chem
     A Quantum Leap Into The Future Of Chemistry


 Q-Chem 5.0, Q-Chem, Inc., Pleasanton, CA (2017)

 Yihan Shao,  Zhengting Gan,  E. Epifanovsky,  A. T. B. Gilbert,  M. Wormit,  
 J. Kussmann,  A. W. Lange,  A. Behn,  Jia Deng,  Xintian Feng,  D. Ghosh,  
 M. Goldey,  P. R. Horn,  L. D. Jacobson,  I. Kaliman,  T. Kus,  A. Landau,  
 Jie Liu,  E. I. Proynov,  R. M. Richard,  R. P. Steele,  E. J. Sundstrom,  
 H. L. Woodcock III,  P. M. Zimmerman,  D. Zuev,  B. Albrecht,  E. Alguire,  
 S. A. Baeppler,  D. Barton,  Z. Benda,  Y. A. Bernard,  E. J. Berquist,  
 K. B. Bravaya,  H. Burton,  D. Casanova,  Chun-Min Chang,  Yunqing Chen,  
 A. Chien,  K. D. Closser,  M. P. Coons,  S. Dasgupta,  A. L. Dempwolff,  
 M. Diedenhofen,  Hainam Do,  R. G. Edgar,  Po-Tung Fang,  S. Fatehi,  
 Qingguo Feng,  J. Fosso-Tande,  Qinghui Ge,  A. Ghysels,  G. Gidofalvi,  
 J. Gomes,  J. Gonthier,  A. Gunina,  M. W. D. Hanson-Heine,  
 P. H. P. Harbach,  A. W. Hauser,  J. E. Herr,  E. G. Hohenstein,  
 Z. C. Holden,  Kerwin Hui,  T.-C. Jagau,  Hyunjun Ji,  B. Kaduk,  
 K. Khistyaev,  Jaehoon Kim,  P. Klunzinger,  K. Koh,  D. Kosenkov,  
 L. Koulias,  T. Kowalczyk,  C. M. Krauter,  A. Kunitsa,  Ka Un Lao,  
 A. Laurent,  K. V. Lawler,  Joonho Lee,  D. Lefrancois,  S. Lehtola,  
 D. S. Levine,  Yi-Pei Li,  You-Sheng Lin,  Fenglai Liu,  E. Livshits,  
 A. Luenser,  P. Manohar,  E. Mansoor,  S. F. Manzer,  Shan-Ping Mao,  
 Yuezhi Mao,  N. Mardirossian,  A. V. Marenich,  T. Markovich,  
 L. A. Martinez-Martinez,  S. A. Maurer,  N. J. Mayhall,  S. C. McKenzie,  
 J.-M. Mewes,  A. F. Morrison,  J. W. Mullinax,  K. Nanda,  
 T. S. Nguyen-Beck,  R. Olivares-Amaya,  J. A. Parkhill,  T. M. Perrine,  
 F. Plasser,  S. Prager,  A. Prociuk,  E. Ramos,  D. R. Rehn,  F. Rob,  
 M. Schneider,  N. Sergueev,  S. M. Sharada,  S. Sharma,  D. W. Small,  
 T. Stauch,  T. Stein,  Yu-Chuan Su,  A. J. W. Thom,  A. Tkatchenko,  
 T. Tsuchimochi,  L. Vogt,  O. Vydrov,  M. A. Watson,  J. Wenzel,  
 M. de Wergifosse,  T. A. Wesolowski,  A. White,  J. Witte,  A. Yamada,  
 Jun Yang,  K. Yao,  S. Yeganeh,  S. R. Yost,  Zhi-Qiang You,  A. Zech,  
 Igor Ying Zhang,  Xing Zhang,  Yan Zhao,  Ying Zhu,  B. R. Brooks,  
 G. K. L. Chan,  C. J. Cramer,  M. S. Gordon,  W. J. Hehre,  A. Klamt,  
 M. W. Schmidt,  C. D. Sherrill,  D. G. Truhlar,  A. Aspuru-Guzik,  R. Baer,  
 A. T. Bell,  N. A. Besley,  Jeng-Da Chai,  R. A. DiStasio Jr.,  A. Dreuw,  
 B. D. Dunietz,  T. R. Furlani,  Chao-Ping Hsu,  Yousung Jung,  Jing Kong,  
 D. S. Lambrecht,  WanZhen Liang,  C. Ochsenfeld,  V. A. Rassolov,  
 L. V. Slipchenko,  J. E. Subotnik,  T. Van Voorhis,  J. M. Herbert,  
 A. I. Krylov,  P. M. W. Gill,  M. Head-Gordon

 Contributors to earlier versions of Q-Chem not listed above: 
 R. D. Adamson,  B. Austin,  J. Baker,  G. J. O. Beran,  K. Brandhorst,  
 S. T. Brown,  E. F. C. Byrd,  A. K. Chakraborty,  C.-L. Cheng,  
 Siu Hung Chien,  D. M. Chipman,  D. L. Crittenden,  H. Dachsel,  
 R. J. Doerksen,  A. D. Dutoi,  L. Fusti-Molnar,  W. A. Goddard III,  
 A. Golubeva-Zadorozhnaya,  S. R. Gwaltney,  G. Hawkins,  A. Heyden,  
 S. Hirata,  G. Kedziora,  F. J. Keil,  C. Kelley,  Jihan Kim,  R. A. King,  
 R. Z. Khaliullin,  P. P. Korambath,  W. Kurlancheek,  A. M. Lee,  M. S. Lee,  
 S. V. Levchenko,  Ching Yeh Lin,  D. Liotard,  R. C. Lochan,  I. Lotan,  
 P. E. Maslen,  N. Nair,  D. P. O'Neill,  D. Neuhauser,  E. Neuscamman,  
 C. M. Oana,  R. Olson,  B. Peters,  R. Peverati,  P. A. Pieniazek,  
 Y. M. Rhee,  J. Ritchie,  M. A. Rohrdanz,  E. Rosta,  N. J. Russ,  
 H. F. Schaefer III,  N. E. Schultz,  N. Shenvi,  A. C. Simmonett,  A. Sodt,  
 D. Stuck,  K. S. Thanthiriwatte,  V. Vanovschi,  Tao Wang,  A. Warshel,  
 C. F. Williams,  Q. Wu,  X. Xu,  W. Zhang

 Please cite Q-Chem as follows:
 Y. Shao et al., Mol. Phys. 113, 184-215 (2015)
 DOI: 10.1080/00268976.2014.952696

 Q-Chem 5.0.2 for Intel X86 EM64T Linux

 Parts of Q-Chem use Armadillo 5.200.1 (Boston Tea Smuggler).
 http://arma.sourceforge.net/

 Q-Chem begins on Thu Jan 25 17:48:44 2018  


Host: 0

     Scratch files written to /home/jcartus/scratch/Uracil-dimer-h-bonded.dir//
 Using version located at /usr/local/qchem/bin/qchem

 Parallel job on  1  processors

Total Memory Limit in MB = 2000
Mega-Array Size in MB = 192

Checking the input file for inconsistencies... 	...done.
Finally everything over in PARseQInput

--------------------------------------------------------------
User input:
--------------------------------------------------------------
$rem
SCF_PRINT                     1
BASIS                         6-311++g**
SCF_SAVE_MATRICES             1
SCF_CONVERGENCE               5
SCF_FINAL_PRINT               1
METHOD                        hf
JOBTYPE                       sp
$end

$molecule
0 1
O    -1.4663316    1.0121693    0.0
C    -0.6281464    1.9142678    0.0
N    0.7205093    1.6882688    0.0
C    1.636729    2.7052764    0.0
C    1.2769036    4.0061763    0.0
C    -0.1286005    4.3621549    0.0
N    -0.977723    3.2396433    0.0
O    -0.5972229    5.4864066    0.0
H    2.0103504    4.7938642    0.0
H    1.0232515    0.706182    0.0
H    -1.9700268    3.432385    0.0
H    2.669062    2.3883417    0.0
O    1.4663316    -1.0121693    0.0
C    0.6281464    -1.9142678    0.0
N    -0.7205093    -1.6882688    0.0
C    -1.636729    -2.7052764    0.0
C    -1.2769036    -4.0061763    0.0
C    0.1286005    -4.3621549    0.0
N    0.977723    -3.2396433    0.0
O    0.5972229    -5.4864066    0.0
H    -2.0103504    -4.7938642    0.0
H    -1.0232515    -0.706182    0.0
H    1.9700268    -3.432385    0.0
H    -2.669062    -2.3883417    0.0
$end


--------------------------------------------------------------
 I,J,IOp=           1          13           2  D=   2.7745195972509874E-015 Fix sym
 I, IOp=           1           4  D=   2.7745195972509874E-015 Fix sym
 I,J,IOp=           2          14           2  D=   1.7111093408681182E-016 Fix sym
 I, IOp=           2           4  D=   1.7111093408681182E-016 Fix sym
 I,J,IOp=           3          15           2  D=   2.8651443727154646E-015 Fix sym
 I, IOp=           3           4  D=   2.8651443727154646E-015 Fix sym
 I,J,IOp=           4          16           2  D=   5.7321781400740499E-015 Fix sym
 I, IOp=           4           4  D=   5.7321781400740499E-015 Fix sym
 I,J,IOp=           5          17           2  D=   5.7745681873480380E-015 Fix sym
 I, IOp=           5           4  D=   5.7745681873480380E-015 Fix sym
 I,J,IOp=           6          18           2  D=   2.6930976647401764E-015 Fix sym
 I, IOp=           6           4  D=   2.6930976647401764E-015 Fix sym
 I,J,IOp=           7          19           2  D=   8.7649190948248183E-017 Fix sym
 I, IOp=           7           4  D=   8.7649190948248183E-017 Fix sym
 I,J,IOp=           8          20           2  D=   2.3566405474730626E-015 Fix sym
 I, IOp=           8           4  D=   2.3566405474730626E-015 Fix sym
 I,J,IOp=           9          21           2  D=   8.0515003922599168E-015 Fix sym
 I, IOp=           9           4  D=   8.0515003922599168E-015 Fix sym
 I,J,IOp=          10          22           2  D=   2.9067391798252095E-015 Fix sym
 I, IOp=          10           4  D=   2.9067391798252095E-015 Fix sym
 I,J,IOp=          11          23           2  D=   2.3034620645869810E-015 Fix sym
 I, IOp=          11           4  D=   2.3034620645869810E-015 Fix sym
 I,J,IOp=          12          24           2  D=   7.9573803743672648E-015 Fix sym
 I, IOp=          12           4  D=   7.9573803743672648E-015 Fix sym
 ----------------------------------------------------------------
             Standard Nuclear Orientation (Angstroms)
    I     Atom           X                Y                Z
 ----------------------------------------------------------------
    1      O      -0.9998310088    -1.4747721881    -0.0000000000
    2      C      -1.9089302129    -0.6441851847    -0.0000000000
    3      N      -1.6942545206     0.7063191997     0.0000000000
    4      C      -2.7189134973     1.6139738579     0.0000000000
    5      C      -4.0167486386     1.2432464456     0.0000000000
    6      C      -4.3609223923    -0.1651948794     0.0000000000
    7      N      -3.2313260812    -1.0048695104    -0.0000000000
    8      O      -5.4812027338    -0.6432333667     0.0000000000
    9      H      -4.8105625043     1.9700586517     0.0000000000
   10      H      -0.7147423242     1.0172905481     0.0000000000
   11      H      -3.4157354713    -1.9987555055    -0.0000000000
   12      H      -2.4106513273     2.6489296355     0.0000000000
   13      O       0.9998310088     1.4747721881     0.0000000000
   14      C       1.9089302129     0.6441851847     0.0000000000
   15      N       1.6942545206    -0.7063191997    -0.0000000000
   16      C       2.7189134973    -1.6139738579    -0.0000000000
   17      C       4.0167486386    -1.2432464456    -0.0000000000
   18      C       4.3609223923     0.1651948794    -0.0000000000
   19      N       3.2313260812     1.0048695104     0.0000000000
   20      O       5.4812027338     0.6432333667    -0.0000000000
   21      H       4.8105625043    -1.9700586517    -0.0000000000
   22      H       0.7147423242    -1.0172905481    -0.0000000000
   23      H       3.4157354713     1.9987555055     0.0000000000
   24      H       2.4106513273    -2.6489296355    -0.0000000000
 ----------------------------------------------------------------
 Molecular Point Group                 C2h   NOp =  4
 Largest Abelian Subgroup              C2h   NOp =  4
 Nuclear Repulsion Energy =  1032.2819160553 hartrees
 There are       58 alpha and       58 beta electrons
 Requested basis set is 6-311++G(d,p)
 There are 136 shells and 408 basis functions

 Total QAlloc Memory Limit   2000 MB
 Mega-Array Size       188 MB
 MEM_STATIC part       192 MB

finished with qalloc call
 Job number = 2, Threshold = 1.00E-08
Integral type ranges set in mkLRange.C for JobNum: 2  <1-21|1-21>
Symmetry turned off temporarily
 Using the largest function pair in Schwarz integrals
Total number of integrals generated =          988694
Symmetry turned back on
 A cutoff of  1.0D-08 yielded   6301 shell pairs
 There are     57200 function pairs (     61190 Cartesian)
 Job number = 11, Threshold = 1.00E-08
Integral type ranges set in mkLRange.C for JobNum: 11  <1-21|22-22>
Total number of integrals generated =          736944
 Smallest overlap matrix eigenvalue = 7.37E-06

 Q-Chem warning in module /usr/local/qchem/stvman/mkSTV.C, line 295:

 Overlap eigenvalue is smaller than square root of threshold

 Multipole matrices computed through 2nd order

 Scale SEOQF with 1.000000e-02/1.000000e-01/1.000000e-01

 Standard Electronic Orientation quadrupole field applied
 Nucleus-field energy     =     0.0000000154 hartrees
 ENuRep (before)= 1032.2819160553
 ENucField = 0.0000000154
 ENuRep (after) = 1032.2819160707
 Guess from superposition of atomic densities
 Warning:  Energy on first SCF cycle will be non-variational
 SAD guess density has 116.000000 electrons

 ==================================================
    GEN_SCFMAN: A general SCF calculation manager  
                                                   
    Authors:                                       
        -- Eric Jon Sundstrom 2008-2014            
        -- Paul Horn 2010-2015                     
        -- Yuezhi Mao 2012-                        
        -- Dmitri Zuev 2014                        
        -- Alec White 2015-                        
        -- David Stuck 2015                        
        -- Shaama M.S. 2015                        
        -- Shane Yost 2015-                         
        -- Joonho Lee 2016-                        
        -- David Small 2016-                       
        -- Daniel Levine 2016-                     
        -- Susi Lehtola 2017-                      
        -- Hugh Burton 2017-                       
 ==================================================
 Hartree-Fock
Finding J and K together
 Job number = 22, Threshold = 1.00E-08
Integral type ranges set in mkLRange.C for JobNum: 22  <1-21|1-21>
 MakeJK  time:  CPU      16.48 s  wall      16.91 s
 HF Exchange:              -105.40327372446147
 One-Electron:             -3172.16601617340211
 Total Coulomb:            1414.13273165396004
 Nuclear repulsion:        1032.28191607067174
 A restricted SCF calculation will be
 performed using DIIS
 SCF converges when DIIS error is below 1.0e-05
 ---------------------------------------
  Cycle       Energy         DIIS error
 ---------------------------------------
Finding J and K together
 Job number = 22, Threshold = 1.00E-08
Integral type ranges set in mkLRange.C for JobNum: 22  <1-21|1-21>
 MakeJK  time:  CPU      92.29 s  wall      92.75 s
 HF Exchange:              -104.08194095548032
 One-Electron:             -3172.64779634732258
 Total Coulomb:            1419.70861232374500
 Nuclear repulsion:        1032.28191607067174
    1    -831.1546421732      3.65e-02  
Finding J and K together
 Job number = 22, Threshold = 1.00E-08
Integral type ranges set in mkLRange.C for JobNum: 22  <1-21|1-21>
 MakeJK  time:  CPU      87.81 s  wall      89.01 s
 HF Exchange:              -103.50748673616728
 One-Electron:             -3177.57935352629647
 Total Coulomb:            1423.85080888290281
 Nuclear repulsion:        1032.28191607067174
    2    -824.7392089084      4.70e-03  
Finding J and K together
 Job number = 22, Threshold = 1.00E-08
Integral type ranges set in mkLRange.C for JobNum: 22  <1-21|1-21>
 MakeJK  time:  CPU      77.94 s  wall      79.46 s
 HF Exchange:              -103.94422274010888
 One-Electron:             -3176.27964664906631
 Total Coulomb:            1422.76879461016711
 Nuclear repulsion:        1032.28191607067174
    3    -824.9541153089      3.83e-03  
Finding J and K together
 Job number = 22, Threshold = 1.00E-08
Integral type ranges set in mkLRange.C for JobNum: 22  <1-21|1-21>
 MakeJK  time:  CPU      63.09 s  wall      63.16 s
 HF Exchange:              -103.94600673074862
 One-Electron:             -3176.21385519158184
 Total Coulomb:            1422.69780831746743
 Nuclear repulsion:        1032.28191607067174
    4    -825.1731587083      4.69e-04  
Finding J and K together
 Job number = 22, Threshold = 1.00E-08
Integral type ranges set in mkLRange.C for JobNum: 22  <1-21|1-21>
 MakeJK  time:  CPU      80.44 s  wall      80.62 s
 HF Exchange:              -103.95285751889614
 One-Electron:             -3176.26654190019326
 Total Coulomb:            1422.75639883552003
 Nuclear repulsion:        1032.28191607067174
    5    -825.1801375342      1.69e-04  
Finding J and K together
 Job number = 22, Threshold = 1.00E-08
Integral type ranges set in mkLRange.C for JobNum: 22  <1-21|1-21>
 MakeJK  time:  CPU      75.92 s  wall      76.14 s
 HF Exchange:              -103.95728548301709
 One-Electron:             -3176.29542116577250
 Total Coulomb:            1422.78948091207644
 Nuclear repulsion:        1032.28191607067174
    6    -825.1810845129      5.70e-05  
Finding J and K together
 Job number = 22, Threshold = 1.00E-08
Integral type ranges set in mkLRange.C for JobNum: 22  <1-21|1-21>
 MakeJK  time:  CPU      51.54 s  wall      51.58 s
 HF Exchange:              -103.95857476296734
 One-Electron:             -3176.29679443730629
 Total Coulomb:            1422.79208771819708
 Nuclear repulsion:        1032.28191607067174
    7    -825.1813096660      3.07e-05  
Finding J and K together
 Job number = 22, Threshold = 1.00E-08
Integral type ranges set in mkLRange.C for JobNum: 22  <1-21|1-21>
 MakeJK  time:  CPU      51.08 s  wall      51.11 s
 HF Exchange:              -103.95879201315373
 One-Electron:             -3176.29783883840810
 Total Coulomb:            1422.79334152791057
 Nuclear repulsion:        1032.28191607067174
    8    -825.1813654114      1.28e-05  
    9    -825.1813732530      3.95e-06  Convergence criterion met
 ---------------------------------------
 SCF time:   CPU 607.81s  wall 612.00s 
 Total energy in the final basis set =     -825.1813732530
 HF Exchange:              -103.95879201315373
 One-Electron:             -3176.29783883840810
 Total Coulomb:            1422.79334152791057
 Nuclear repulsion:        1032.28191607067174
Wall  1 = 613
Clock 1 = 608.50726318359375
 ==================================================
                  Done GEN_SCFMAN                  
 ==================================================

Symmetry turned off temporarily

 --------------------------------------------------------------
             Orbital Energies (a.u.) and Symmetries
 --------------------------------------------------------------

 Alpha MOs, Restricted
 -- Occupied --                  
-20.565 -20.565 -20.548 -20.548 -15.639 -15.639 -15.639 -15.639
  1 Bu    1 Ag    2 Ag    2 Bu    3 Bu    3 Ag    4 Ag    4 Bu                 
-11.438 -11.438 -11.390 -11.390 -11.342 -11.342 -11.259 -11.259
  5 Bu    5 Ag    6 Ag    6 Bu    7 Ag    7 Bu    8 Ag    8 Bu                 
 -1.455  -1.450  -1.408  -1.408  -1.326  -1.319  -1.257  -1.253
  9 Ag    9 Bu   10 Ag   10 Bu   11 Bu   11 Ag   12 Ag   12 Bu                 
 -1.095  -1.092  -0.941  -0.940  -0.920  -0.903  -0.819  -0.807
 13 Bu   13 Ag   14 Ag   14 Bu   15 Ag   15 Bu   16 Bu   16 Ag                 
 -0.775  -0.772  -0.727  -0.716  -0.707  -0.680  -0.676  -0.676
 17 Bu   17 Ag   18 Bu   18 Ag   19 Ag    1 Au   19 Bu    1 Bg                 
 -0.673  -0.655  -0.621  -0.618  -0.606  -0.603  -0.579  -0.576
 20 Bu   20 Ag   21 Bu   21 Ag   22 Ag   22 Bu    2 Au    2 Bg                 
 -0.533  -0.527  -0.511  -0.495  -0.457  -0.456  -0.451  -0.449
  3 Bg    3 Au   23 Ag   23 Bu   24 Ag   24 Bu    4 Au    4 Bg                 
 -0.373  -0.370
  5 Bg    5 Au                                                                 
 -- Virtual --                   
  0.031   0.035   0.050   0.054   0.064   0.070   0.071   0.072
 25 Ag   25 Bu   26 Bu   26 Ag   27 Ag    6 Au   27 Bu   28 Ag                 
  0.077   0.082   0.099   0.101   0.112   0.121   0.122   0.124
  6 Bg    7 Au   28 Bu    7 Bg   29 Bu   29 Ag    8 Bg    8 Au                 
  0.129   0.130   0.139   0.149   0.152   0.153   0.160   0.161
 30 Bu   30 Ag    9 Au    9 Bg   10 Au   31 Ag   31 Bu   32 Ag                 
  0.166   0.169   0.170   0.173   0.177   0.185   0.187   0.189
 32 Bu   33 Bu   10 Bg   33 Ag   11 Bg   34 Ag   35 Ag   34 Bu                 
  0.199   0.202   0.205   0.209   0.212   0.225   0.227   0.239
 35 Bu   11 Au   36 Ag   37 Ag   36 Bu   38 Ag   37 Bu   38 Bu                 
  0.245   0.249   0.257   0.270   0.272   0.274   0.276   0.280
 12 Au   39 Ag   39 Bu   40 Bu   40 Ag   13 Au   12 Bg   41 Ag                 
  0.294   0.295   0.300   0.303   0.308   0.316   0.328   0.331
 41 Bu   14 Au   42 Ag   13 Bg   42 Bu   14 Bg   43 Ag   43 Bu                 
  0.344   0.344   0.355   0.364   0.368   0.374   0.377   0.378
 44 Ag   44 Bu   45 Bu   45 Ag   15 Au   46 Ag   46 Bu   15 Bg                 
  0.388   0.395   0.396   0.396   0.401   0.404   0.417   0.418
 47 Ag   48 Ag   16 Au   47 Bu   48 Bu   49 Ag   50 Ag   49 Bu                 
  0.428   0.428   0.428   0.435   0.436   0.443   0.446   0.454
 50 Bu   16 Bg   51 Ag   51 Bu   52 Ag   52 Bu   53 Ag   53 Bu                 
  0.461   0.469   0.477   0.488   0.493   0.497   0.512   0.533
 54 Ag   54 Bu   55 Ag   56 Ag   55 Bu   57 Ag   56 Bu   57 Bu                 
  0.544   0.548   0.558   0.576   0.580   0.589   0.605   0.618
 58 Ag   58 Bu   59 Ag   60 Ag   59 Bu   60 Bu   61 Ag   61 Bu                 
  0.652   0.684   0.698   0.709   0.714   0.728   0.738   0.739
 62 Ag   62 Bu   17 Bg   63 Bu   17 Au   63 Ag   18 Bg   18 Au                 
  0.743   0.751   0.755   0.767   0.769   0.790   0.792   0.799
 64 Ag   19 Au   64 Bu   65 Bu   65 Ag   66 Bu   19 Bg   67 Bu                 
  0.802   0.810   0.814   0.815   0.852   0.881   0.900   0.902
 66 Ag   67 Ag   20 Bg   20 Au   68 Ag   68 Bu   69 Ag   69 Bu                 
  0.930   0.939   0.954   0.966   0.971   0.973   0.973   0.996
 70 Bu   70 Ag   71 Ag   72 Ag   71 Bu   73 Ag   72 Bu   73 Bu                 
  0.999   1.022   1.025   1.028   1.028   1.033   1.056   1.057
 74 Bu   74 Ag   75 Bu   21 Bg   21 Au   75 Ag   22 Au   76 Ag                 
  1.072   1.078   1.085   1.097   1.123   1.124   1.132   1.149
 22 Bg   76 Bu   77 Bu   77 Ag   78 Ag   78 Bu   79 Bu   79 Ag                 
  1.184   1.200   1.224   1.232   1.241   1.242   1.242   1.286
 80 Ag   80 Bu   23 Bg   23 Au   24 Bg   24 Au   81 Bu   82 Bu                 
  1.288   1.296   1.319   1.336   1.342   1.344   1.376   1.378
 81 Ag   82 Ag   83 Bu   25 Au   83 Ag   25 Bg   26 Au   26 Bg                 
  1.388   1.402   1.414   1.420   1.422   1.426   1.438   1.441
 27 Bg   27 Au   84 Ag   28 Au   28 Bg   84 Bu   85 Ag   85 Bu                 
  1.455   1.458   1.460   1.487   1.503   1.507   1.509   1.509
 86 Bu   29 Bg   29 Au   86 Ag   30 Au   87 Ag   87 Bu   30 Bg                 
  1.548   1.582   1.605   1.608   1.666   1.695   1.748   1.789
 88 Ag   88 Bu   89 Ag   89 Bu   90 Ag   90 Bu   91 Bu   91 Ag                 
  1.793   1.801   1.808   1.818   1.821   1.822   1.860   1.882
 92 Bu   92 Ag   93 Ag   31 Bg   93 Bu   31 Au   94 Ag   94 Bu                 
  1.898   1.900   1.922   1.927   1.928   1.932   1.966   1.976
 32 Au   32 Bg   95 Bu   33 Au   95 Ag   33 Bg   96 Ag   96 Bu                 
  1.997   2.007   2.016   2.020   2.028   2.076   2.086   2.090
 97 Ag   97 Bu   34 Au   34 Bg   98 Ag   98 Bu   99 Bu   99 Ag                 
  2.128   2.133   2.158   2.174   2.202   2.224   2.228   2.228
100 Bu  100 Ag  101 Bu  101 Ag  102 Ag   35 Au  102 Bu   35 Bg                 
  2.249   2.281   2.304   2.310   2.343   2.344   2.364   2.367
103 Bu  103 Ag  104 Ag  104 Bu   36 Bg   36 Au  105 Ag  105 Bu                 
  2.396   2.413   2.548   2.554   2.555   2.556   2.637   2.637
106 Bu  106 Ag  107 Bu   37 Au   37 Bg  107 Ag   38 Au   38 Bg                 
  2.638   2.655   2.669   2.680   2.720   2.739   2.824   2.834
108 Ag  108 Bu  109 Ag  109 Bu   39 Bg   39 Au   40 Au   40 Bg                 
  2.839   2.845   2.854   2.870   2.940   2.954   2.972   2.984
110 Ag  110 Bu  111 Ag  111 Bu  112 Bu  112 Ag  113 Ag  113 Bu                 
  3.005   3.008   3.022   3.031   3.067   3.070   3.073   3.129
114 Bu  114 Ag  115 Ag  115 Bu  116 Bu   41 Bg   41 Au  116 Ag                 
  3.148   3.150   3.165   3.178   3.196   3.240   3.240   3.252
 42 Au   42 Bg   43 Au   43 Bg  117 Bu  117 Ag  118 Bu   44 Bg                 
  3.253   3.261   3.276   3.286   3.295   3.298   3.300   3.309
 44 Au  118 Ag  119 Ag  119 Bu   45 Bg  120 Ag   45 Au  120 Bu                 
  3.330   3.345   3.346   3.381   3.420   3.438   3.520   3.540
121 Ag   46 Bg   46 Au  121 Bu  122 Bu  122 Ag  123 Ag  123 Bu                 
  3.578   3.583   3.715   3.717   3.759   3.759   3.787   3.791
124 Ag  124 Bu   47 Bg   47 Au   48 Au   48 Bg  125 Ag  125 Bu                 
  3.837   3.841   3.872   3.882   3.930   3.941   3.990   4.004
126 Bu  126 Ag  127 Bu  127 Ag  128 Bu  128 Ag  129 Bu  129 Ag                 
  4.012   4.015   4.055   4.069   4.108   4.134   4.297   4.297
130 Ag  130 Bu  131 Bu  131 Ag  132 Bu  132 Ag  133 Ag  133 Bu                 
  4.300   4.300   4.333   4.348   4.437   4.441   4.495   4.516
 49 Au   49 Bg   50 Au   50 Bg  134 Ag  134 Bu  135 Ag  135 Bu                 
  4.632   4.637   5.209   5.219   5.298   5.309   5.445   5.462
136 Ag  136 Bu  137 Ag  137 Bu  138 Ag  138 Bu  139 Ag  139 Bu                 
  5.591   5.591   5.621   5.628   5.730   5.731   5.794   5.803
 51 Bg   51 Au   52 Au   52 Bg  140 Bu  140 Ag  141 Ag  141 Bu                 
  5.890   5.919   6.339   6.348   6.400   6.427  24.873  24.873
142 Bu  142 Ag  143 Ag  143 Bu  144 Ag  144 Bu  145 Bu  145 Ag                 
 24.977  24.980  25.037  25.037  25.324  25.326  37.019  37.023
146 Ag  146 Bu  147 Bu  147 Ag  148 Bu  148 Ag  149 Ag  149 Bu                 
 37.057  37.070  51.703  51.714  51.751  51.752
150 Bu  150 Ag  151 Bu  151 Ag  152 Bu  152 Ag                                 

 Beta MOs, Restricted
 -- Occupied --                  
-20.565 -20.565 -20.548 -20.548 -15.639 -15.639 -15.639 -15.639
  1 Bu    1 Ag    2 Ag    2 Bu    3 Bu    3 Ag    4 Ag    4 Bu                 
-11.438 -11.438 -11.390 -11.390 -11.342 -11.342 -11.259 -11.259
  5 Bu    5 Ag    6 Ag    6 Bu    7 Ag    7 Bu    8 Ag    8 Bu                 
 -1.455  -1.450  -1.408  -1.408  -1.326  -1.319  -1.257  -1.253
  9 Ag    9 Bu   10 Ag   10 Bu   11 Bu   11 Ag   12 Ag   12 Bu                 
 -1.095  -1.092  -0.941  -0.940  -0.920  -0.903  -0.819  -0.807
 13 Bu   13 Ag   14 Ag   14 Bu   15 Ag   15 Bu   16 Bu   16 Ag                 
 -0.775  -0.772  -0.727  -0.716  -0.707  -0.680  -0.676  -0.676
 17 Bu   17 Ag   18 Bu   18 Ag   19 Ag    1 Au   19 Bu    1 Bg                 
 -0.673  -0.655  -0.621  -0.618  -0.606  -0.603  -0.579  -0.576
 20 Bu   20 Ag   21 Bu   21 Ag   22 Ag   22 Bu    2 Au    2 Bg                 
 -0.533  -0.527  -0.511  -0.495  -0.457  -0.456  -0.451  -0.449
  3 Bg    3 Au   23 Ag   23 Bu   24 Ag   24 Bu    4 Au    4 Bg                 
 -0.373  -0.370
  5 Bg    5 Au                                                                 
 -- Virtual --                   
  0.031   0.035   0.050   0.054   0.064   0.070   0.071   0.072
 25 Ag   25 Bu   26 Bu   26 Ag   27 Ag    6 Au   27 Bu   28 Ag                 
  0.077   0.082   0.099   0.101   0.112   0.121   0.122   0.124
  6 Bg    7 Au   28 Bu    7 Bg   29 Bu   29 Ag    8 Bg    8 Au                 
  0.129   0.130   0.139   0.149   0.152   0.153   0.160   0.161
 30 Bu   30 Ag    9 Au    9 Bg   10 Au   31 Ag   31 Bu   32 Ag                 
  0.166   0.169   0.170   0.173   0.177   0.185   0.187   0.189
 32 Bu   33 Bu   10 Bg   33 Ag   11 Bg   34 Ag   35 Ag   34 Bu                 
  0.199   0.202   0.205   0.209   0.212   0.225   0.227   0.239
 35 Bu   11 Au   36 Ag   37 Ag   36 Bu   38 Ag   37 Bu   38 Bu                 
  0.245   0.249   0.257   0.270   0.272   0.274   0.276   0.280
 12 Au   39 Ag   39 Bu   40 Bu   40 Ag   13 Au   12 Bg   41 Ag                 
  0.294   0.295   0.300   0.303   0.308   0.316   0.328   0.331
 41 Bu   14 Au   42 Ag   13 Bg   42 Bu   14 Bg   43 Ag   43 Bu                 
  0.344   0.344   0.355   0.364   0.368   0.374   0.377   0.378
 44 Ag   44 Bu   45 Bu   45 Ag   15 Au   46 Ag   46 Bu   15 Bg                 
  0.388   0.395   0.396   0.396   0.401   0.404   0.417   0.418
 47 Ag   48 Ag   16 Au   47 Bu   48 Bu   49 Ag   50 Ag   49 Bu                 
  0.428   0.428   0.428   0.435   0.436   0.443   0.446   0.454
 50 Bu   16 Bg   51 Ag   51 Bu   52 Ag   52 Bu   53 Ag   53 Bu                 
  0.461   0.469   0.477   0.488   0.493   0.497   0.512   0.533
 54 Ag   54 Bu   55 Ag   56 Ag   55 Bu   57 Ag   56 Bu   57 Bu                 
  0.544   0.548   0.558   0.576   0.580   0.589   0.605   0.618
 58 Ag   58 Bu   59 Ag   60 Ag   59 Bu   60 Bu   61 Ag   61 Bu                 
  0.652   0.684   0.698   0.709   0.714   0.728   0.738   0.739
 62 Ag   62 Bu   17 Bg   63 Bu   17 Au   63 Ag   18 Bg   18 Au                 
  0.743   0.751   0.755   0.767   0.769   0.790   0.792   0.799
 64 Ag   19 Au   64 Bu   65 Bu   65 Ag   66 Bu   19 Bg   67 Bu                 
  0.802   0.810   0.814   0.815   0.852   0.881   0.900   0.902
 66 Ag   67 Ag   20 Bg   20 Au   68 Ag   68 Bu   69 Ag   69 Bu                 
  0.930   0.939   0.954   0.966   0.971   0.973   0.973   0.996
 70 Bu   70 Ag   71 Ag   72 Ag   71 Bu   73 Ag   72 Bu   73 Bu                 
  0.999   1.022   1.025   1.028   1.028   1.033   1.056   1.057
 74 Bu   74 Ag   75 Bu   21 Bg   21 Au   75 Ag   22 Au   76 Ag                 
  1.072   1.078   1.085   1.097   1.123   1.124   1.132   1.149
 22 Bg   76 Bu   77 Bu   77 Ag   78 Ag   78 Bu   79 Bu   79 Ag                 
  1.184   1.200   1.224   1.232   1.241   1.242   1.242   1.286
 80 Ag   80 Bu   23 Bg   23 Au   24 Bg   24 Au   81 Bu   82 Bu                 
  1.288   1.296   1.319   1.336   1.342   1.344   1.376   1.378
 81 Ag   82 Ag   83 Bu   25 Au   83 Ag   25 Bg   26 Au   26 Bg                 
  1.388   1.402   1.414   1.420   1.422   1.426   1.438   1.441
 27 Bg   27 Au   84 Ag   28 Au   28 Bg   84 Bu   85 Ag   85 Bu                 
  1.455   1.458   1.460   1.487   1.503   1.507   1.509   1.509
 86 Bu   29 Bg   29 Au   86 Ag   30 Au   87 Ag   87 Bu   30 Bg                 
  1.548   1.582   1.605   1.608   1.666   1.695   1.748   1.789
 88 Ag   88 Bu   89 Ag   89 Bu   90 Ag   90 Bu   91 Bu   91 Ag                 
  1.793   1.801   1.808   1.818   1.821   1.822   1.860   1.882
 92 Bu   92 Ag   93 Ag   31 Bg   93 Bu   31 Au   94 Ag   94 Bu                 
  1.898   1.900   1.922   1.927   1.928   1.932   1.966   1.976
 32 Au   32 Bg   95 Bu   33 Au   95 Ag   33 Bg   96 Ag   96 Bu                 
  1.997   2.007   2.016   2.020   2.028   2.076   2.086   2.090
 97 Ag   97 Bu   34 Au   34 Bg   98 Ag   98 Bu   99 Bu   99 Ag                 
  2.128   2.133   2.158   2.174   2.202   2.224   2.228   2.228
100 Bu  100 Ag  101 Bu  101 Ag  102 Ag   35 Au  102 Bu   35 Bg                 
  2.249   2.281   2.304   2.310   2.343   2.344   2.364   2.367
103 Bu  103 Ag  104 Ag  104 Bu   36 Bg   36 Au  105 Ag  105 Bu                 
  2.396   2.413   2.548   2.554   2.555   2.556   2.637   2.637
106 Bu  106 Ag  107 Bu   37 Au   37 Bg  107 Ag   38 Au   38 Bg                 
  2.638   2.655   2.669   2.680   2.720   2.739   2.824   2.834
108 Ag  108 Bu  109 Ag  109 Bu   39 Bg   39 Au   40 Au   40 Bg                 
  2.839   2.845   2.854   2.870   2.940   2.954   2.972   2.984
110 Ag  110 Bu  111 Ag  111 Bu  112 Bu  112 Ag  113 Ag  113 Bu                 
  3.005   3.008   3.022   3.031   3.067   3.070   3.073   3.129
114 Bu  114 Ag  115 Ag  115 Bu  116 Bu   41 Bg   41 Au  116 Ag                 
  3.148   3.150   3.165   3.178   3.196   3.240   3.240   3.252
 42 Au   42 Bg   43 Au   43 Bg  117 Bu  117 Ag  118 Bu   44 Bg                 
  3.253   3.261   3.276   3.286   3.295   3.298   3.300   3.309
 44 Au  118 Ag  119 Ag  119 Bu   45 Bg  120 Ag   45 Au  120 Bu                 
  3.330   3.345   3.346   3.381   3.420   3.438   3.520   3.540
121 Ag   46 Bg   46 Au  121 Bu  122 Bu  122 Ag  123 Ag  123 Bu                 
  3.578   3.583   3.715   3.717   3.759   3.759   3.787   3.791
124 Ag  124 Bu   47 Bg   47 Au   48 Au   48 Bg  125 Ag  125 Bu                 
  3.837   3.841   3.872   3.882   3.930   3.941   3.990   4.004
126 Bu  126 Ag  127 Bu  127 Ag  128 Bu  128 Ag  129 Bu  129 Ag                 
  4.012   4.015   4.055   4.069   4.108   4.134   4.297   4.297
130 Ag  130 Bu  131 Bu  131 Ag  132 Bu  132 Ag  133 Ag  133 Bu                 
  4.300   4.300   4.333   4.348   4.437   4.441   4.495   4.516
 49 Au   49 Bg   50 Au   50 Bg  134 Ag  134 Bu  135 Ag  135 Bu                 
  4.632   4.637   5.209   5.219   5.298   5.309   5.445   5.462
136 Ag  136 Bu  137 Ag  137 Bu  138 Ag  138 Bu  139 Ag  139 Bu                 
  5.591   5.591   5.621   5.628   5.730   5.731   5.794   5.803
 51 Bg   51 Au   52 Au   52 Bg  140 Bu  140 Ag  141 Ag  141 Bu                 
  5.890   5.919   6.339   6.348   6.400   6.427  24.873  24.873
142 Bu  142 Ag  143 Ag  143 Bu  144 Ag  144 Bu  145 Bu  145 Ag                 
 24.977  24.980  25.037  25.037  25.324  25.326  37.019  37.023
146 Ag  146 Bu  147 Bu  147 Ag  148 Bu  148 Ag  149 Ag  149 Bu                 
 37.057  37.070  51.703  51.714  51.751  51.752
150 Bu  150 Ag  151 Bu  151 Ag  152 Bu  152 Ag                                 
 --------------------------------------------------------------

          Ground-State Mulliken Net Atomic Charges

     Atom                 Charge (a.u.)
  ----------------------------------------
      1 O                    -0.493222
      2 C                     0.661382
      3 N                    -0.633874
      4 C                     0.145801
      5 C                    -0.142366
      6 C                    -0.011074
      7 N                    -0.639830
      8 O                    -0.395441
      9 H                     0.268575
     10 H                     0.610701
     11 H                     0.412269
     12 H                     0.217080
     13 O                    -0.493222
     14 C                     0.661382
     15 N                    -0.633874
     16 C                     0.145801
     17 C                    -0.142366
     18 C                    -0.011074
     19 N                    -0.639830
     20 O                    -0.395441
     21 H                     0.268575
     22 H                     0.610701
     23 H                     0.412269
     24 H                     0.217080
  ----------------------------------------
  Sum of atomic charges =    -0.000000

 -----------------------------------------------------------------
                    Cartesian Multipole Moments
 -----------------------------------------------------------------
    Charge (ESU x 10^10)
                -0.0000
    Dipole Moment (Debye)
         X       0.0000      Y       0.0000      Z       0.0000
       Tot       0.0000
    Quadrupole Moments (Debye-Ang)
        XX    -144.6862     XY     -17.8243     YY     -81.3225
        XZ      -0.0000     YZ       0.0000     ZZ     -93.7530
    Octopole Moments (Debye-Ang^2)
       XXX       0.0000    XXY      -0.0000    XYY      -0.0000
       YYY       0.0000    XXZ       0.0000    XYZ       0.0000
       YYZ      -0.0000    XZZ      -0.0000    YZZ       0.0000
       ZZZ       0.0000
    Hexadecapole Moments (Debye-Ang^3)
      XXXX   -9119.0940   XXXY    -467.8841   XXYY   -1028.8385
      XYYY       0.0249   YYYY    -659.9805   XXXZ      -0.0000
      XXYZ       0.0000   XYYZ      -0.0000   YYYZ       0.0000
      XXZZ   -1097.4575   XYZZ      30.0170   YYZZ    -154.4978
      XZZZ      -0.0000   YZZZ       0.0000   ZZZZ     -92.5749
 -----------------------------------------------------------------
 Mayer SCF Bond Order, atomic valence on the diagonal:

            1           2           3           4           5           6
    1   1.8169532   1.6580673  -0.0442532   0.0660137  -0.0220348   0.0753685
    2   1.6580673   3.7194796   1.1190375  -0.0305530   0.0921687  -0.0647807
    3  -0.0442532   1.1190375   2.7549040   0.8098637  -0.0852532   0.0231792
    4   0.0660137  -0.0305530   0.8098637   3.6958868   2.1417204  -0.0490800
    5  -0.0220348   0.0921687  -0.0852532   2.1417204   4.0161082   1.1751376
    6   0.0753685  -0.0647807   0.0231792  -0.0490800   1.1751376   3.9155535
    7  -0.0409190   1.0597737   0.1248307  -0.1086650  -0.0191052   0.9460129
    8   0.0074496   0.0577258   0.0078299  -0.0151004  -0.0726264   1.7836382
    9  -0.0003703  -0.0101485   0.0151167   0.0349076   0.7896349   0.0568013
   10  -0.0171621  -0.0284936   0.7213595  -0.0514927  -0.0994249   0.0088296
   11  -0.0102725  -0.0224393   0.0163027  -0.0147702   0.0005672  -0.0195619
   12   0.0017068   0.0122441  -0.0362492   0.9115817   0.0546928   0.0079554
   13   0.0077655  -0.0203616   0.1033193  -0.0121748   0.0475267  -0.0267712
   14  -0.0203616   0.0052990  -0.0639278  -0.0030663   0.0022252  -0.0030092
   15   0.1033193  -0.0639278   0.0431145   0.0109796  -0.0010785   0.0029267
   16  -0.0121748  -0.0030663   0.0109796   0.0066974  -0.0067321  -0.0059878
   17   0.0475267   0.0022252  -0.0010785  -0.0067321   0.0037761   0.0028571
   18  -0.0267712  -0.0030092   0.0029267  -0.0059878   0.0028571   0.0055578
   19   0.0020430  -0.0046656   0.0071248   0.0045134  -0.0017181  -0.0010762
   20   0.0004765   0.0014461  -0.0013003  -0.0000917   0.0003412  -0.0004661
   21   0.0007331  -0.0001807   0.0001138  -0.0004717   0.0002676   0.0001943
   22   0.0426206  -0.0373903  -0.0184477   0.0075471   0.0136105  -0.0026415
   23   0.0004904   0.0007373  -0.0007764  -0.0000728  -0.0001543   0.0004132
   24  -0.0023083  -0.0002287   0.0010916   0.0003205  -0.0002902   0.0000562
            7           8           9          10          11          12
    1  -0.0409190   0.0074496  -0.0003703  -0.0171621  -0.0102725   0.0017068
    2   1.0597737   0.0577258  -0.0101485  -0.0284936  -0.0224393   0.0122441
    3   0.1248307   0.0078299   0.0151167   0.7213595   0.0163027  -0.0362492
    4  -0.1086650  -0.0151004   0.0349076  -0.0514927  -0.0147702   0.9115817
    5  -0.0191052  -0.0726264   0.7896349  -0.0994249   0.0005672   0.0546928
    6   0.9460129   1.7836382   0.0568013   0.0088296  -0.0195619   0.0079554
    7   2.8552970   0.0196232   0.0125611   0.0041069   0.8665503  -0.0055701
    8   0.0196232   1.7443840  -0.0318473   0.0028832  -0.0160438   0.0016744
    9   0.0125611  -0.0318473   0.8716599  -0.0005155   0.0009676   0.0037137
   10   0.0041069   0.0028832  -0.0005155   0.5337711   0.0000692  -0.0059995
   11   0.8665503  -0.0160438   0.0009676   0.0000692   0.8012139  -0.0001526
   12  -0.0055701   0.0016744   0.0037137  -0.0059995  -0.0001526   0.9444957
   13   0.0020430   0.0004765   0.0007331   0.0426206   0.0004904  -0.0023083
   14  -0.0046656   0.0014461  -0.0001807  -0.0373903   0.0007373  -0.0002287
   15   0.0071248  -0.0013003   0.0001138  -0.0184477  -0.0007764   0.0010916
   16   0.0045134  -0.0000917  -0.0004717   0.0075471  -0.0000728   0.0003205
   17  -0.0017181   0.0003412   0.0002676   0.0136105  -0.0001543  -0.0002902
   18  -0.0010762  -0.0004661   0.0001943  -0.0026415   0.0004132   0.0000562
   19  -0.0001383  -0.0003265  -0.0000245  -0.0098158  -0.0001279   0.0003091
   20  -0.0003265   0.0000935  -0.0000510  -0.0012409   0.0001039   0.0001930
   21  -0.0000245  -0.0000510  -0.0000043   0.0003042  -0.0000351  -0.0000070
   22  -0.0098158  -0.0012409   0.0003042   0.0062151  -0.0007852  -0.0003652
   23  -0.0001279   0.0001039  -0.0000351  -0.0007852   0.0000628   0.0001411
   24   0.0003091   0.0001930  -0.0000070  -0.0003652   0.0001411  -0.0000141
           13          14          15          16          17          18
    1   0.0077655  -0.0203616   0.1033193  -0.0121748   0.0475267  -0.0267712
    2  -0.0203616   0.0052990  -0.0639278  -0.0030663   0.0022252  -0.0030092
    3   0.1033193  -0.0639278   0.0431145   0.0109796  -0.0010785   0.0029267
    4  -0.0121748  -0.0030663   0.0109796   0.0066974  -0.0067321  -0.0059878
    5   0.0475267   0.0022252  -0.0010785  -0.0067321   0.0037761   0.0028571
    6  -0.0267712  -0.0030092   0.0029267  -0.0059878   0.0028571   0.0055578
    7   0.0020430  -0.0046656   0.0071248   0.0045134  -0.0017181  -0.0010762
    8   0.0004765   0.0014461  -0.0013003  -0.0000917   0.0003412  -0.0004661
    9   0.0007331  -0.0001807   0.0001138  -0.0004717   0.0002676   0.0001943
   10   0.0426206  -0.0373903  -0.0184477   0.0075471   0.0136105  -0.0026415
   11   0.0004904   0.0007373  -0.0007764  -0.0000728  -0.0001543   0.0004132
   12  -0.0023083  -0.0002287   0.0010916   0.0003205  -0.0002902   0.0000562
   13   1.8169532   1.6580673  -0.0442532   0.0660137  -0.0220348   0.0753685
   14   1.6580673   3.7194796   1.1190375  -0.0305530   0.0921687  -0.0647807
   15  -0.0442532   1.1190375   2.7549040   0.8098637  -0.0852532   0.0231792
   16   0.0660137  -0.0305530   0.8098637   3.6958868   2.1417204  -0.0490800
   17  -0.0220348   0.0921687  -0.0852532   2.1417204   4.0161082   1.1751376
   18   0.0753685  -0.0647807   0.0231792  -0.0490800   1.1751376   3.9155535
   19  -0.0409190   1.0597737   0.1248307  -0.1086650  -0.0191052   0.9460129
   20   0.0074496   0.0577258   0.0078299  -0.0151004  -0.0726264   1.7836382
   21  -0.0003703  -0.0101485   0.0151167   0.0349076   0.7896349   0.0568013
   22  -0.0171621  -0.0284936   0.7213595  -0.0514927  -0.0994249   0.0088296
   23  -0.0102725  -0.0224393   0.0163027  -0.0147702   0.0005672  -0.0195619
   24   0.0017068   0.0122441  -0.0362492   0.9115817   0.0546928   0.0079554
           19          20          21          22          23          24
    1   0.0020430   0.0004765   0.0007331   0.0426206   0.0004904  -0.0023083
    2  -0.0046656   0.0014461  -0.0001807  -0.0373903   0.0007373  -0.0002287
    3   0.0071248  -0.0013003   0.0001138  -0.0184477  -0.0007764   0.0010916
    4   0.0045134  -0.0000917  -0.0004717   0.0075471  -0.0000728   0.0003205
    5  -0.0017181   0.0003412   0.0002676   0.0136105  -0.0001543  -0.0002902
    6  -0.0010762  -0.0004661   0.0001943  -0.0026415   0.0004132   0.0000562
    7  -0.0001383  -0.0003265  -0.0000245  -0.0098158  -0.0001279   0.0003091
    8  -0.0003265   0.0000935  -0.0000510  -0.0012409   0.0001039   0.0001930
    9  -0.0000245  -0.0000510  -0.0000043   0.0003042  -0.0000351  -0.0000070
   10  -0.0098158  -0.0012409   0.0003042   0.0062151  -0.0007852  -0.0003652
   11  -0.0001279   0.0001039  -0.0000351  -0.0007852   0.0000628   0.0001411
   12   0.0003091   0.0001930  -0.0000070  -0.0003652   0.0001411  -0.0000141
   13  -0.0409190   0.0074496  -0.0003703  -0.0171621  -0.0102725   0.0017068
   14   1.0597737   0.0577258  -0.0101485  -0.0284936  -0.0224393   0.0122441
   15   0.1248307   0.0078299   0.0151167   0.7213595   0.0163027  -0.0362492
   16  -0.1086650  -0.0151004   0.0349076  -0.0514927  -0.0147702   0.9115817
   17  -0.0191052  -0.0726264   0.7896349  -0.0994249   0.0005672   0.0546928
   18   0.9460129   1.7836382   0.0568013   0.0088296  -0.0195619   0.0079554
   19   2.8552970   0.0196232   0.0125611   0.0041069   0.8665503  -0.0055701
   20   0.0196232   1.7443840  -0.0318473   0.0028832  -0.0160438   0.0016744
   21   0.0125611  -0.0318473   0.8716599  -0.0005155   0.0009676   0.0037137
   22   0.0041069   0.0028832  -0.0005155   0.5337711   0.0000692  -0.0059995
   23   0.8665503  -0.0160438   0.0009676   0.0000692   0.8012139  -0.0001526
   24  -0.0055701   0.0016744   0.0037137  -0.0059995  -0.0001526   0.9444957


 JobOver = TRUE
Archival summary:
1\1\qciep03\SP\HF\BasisUnspecified\4488\jcartus\ThuJan2517:59:032018ThuJan2517:59:032018\0\\#,HF,BasisUnspecified,\\0,1\O\C,1,1.2314\N,2,1.36746,1,123.384\H,3,1.02769,2,116.646,1,-0,0\C,3,1.36885,2,122.503,1,-180,0\H,5,1.07989,3,114.949,2,-180,0\C,5,1.34975,3,122.523,2,0,0\H,7,1.07629,5,121.581,3,-180,0\N,2,1.3707,1,122.328,3,180,0\H,9,1.01085,2,115.768,1,0,0\C,9,1.40749,2,128.119,1,180,0\O,11,1.21801,9,120.266,2,180,0\H,1,1.77456,2,122.644,3,-0,0\N,13,1.02769,1,177.326,2,-0,0\C,14,1.36746,13,116.646,1,-0,0\O,15,1.2314,14,123.384,13,-0,0\C,14,1.36885,13,120.852,1,180,0\H,17,1.07989,14,114.949,13,-0,0\C,17,1.34975,14,122.523,13,180,0\H,19,1.07629,17,121.581,14,180,0\N,15,1.3707,14,114.289,13,-180,0\H,21,1.01085,15,115.768,14,180,0\C,21,1.40749,15,128.119,14,0,0\O,23,1.21801,21,120.266,15,-180,0\\HF=-825.181373\\@

 Total job time:  619.30s(wall), 614.52s(cpu) 
 Thu Jan 25 17:59:03 2018

        *************************************************************
        *                                                           *
        *  Thank you very much for using Q-Chem.  Have a nice day.  *
        *                                                           *
        *************************************************************


*** MISSION COMPLETED -- STARFLEET OUT ***

0 sent ACK to 0 
now end server 0 ... 
