Process 0 of 1 is on qciep03 - thread support 0
initial socket setup ...start
initial socket setup ...done 
now start server 0 ... 
qciep03.tugraz.at 127.0.1
Q-Chem Developer Version! Running on 127.0.1.*
                  Welcome to Q-Chem
     A Quantum Leap Into The Future Of Chemistry


 Q-Chem 5.0, Q-Chem, Inc., Pleasanton, CA (2017)

 Yihan Shao,  Zhengting Gan,  E. Epifanovsky,  A. T. B. Gilbert,  M. Wormit,  
 J. Kussmann,  A. W. Lange,  A. Behn,  Jia Deng,  Xintian Feng,  D. Ghosh,  
 M. Goldey,  P. R. Horn,  L. D. Jacobson,  I. Kaliman,  T. Kus,  A. Landau,  
 Jie Liu,  E. I. Proynov,  R. M. Richard,  R. P. Steele,  E. J. Sundstrom,  
 H. L. Woodcock III,  P. M. Zimmerman,  D. Zuev,  B. Albrecht,  E. Alguire,  
 S. A. Baeppler,  D. Barton,  Z. Benda,  Y. A. Bernard,  E. J. Berquist,  
 K. B. Bravaya,  H. Burton,  D. Casanova,  Chun-Min Chang,  Yunqing Chen,  
 A. Chien,  K. D. Closser,  M. P. Coons,  S. Dasgupta,  A. L. Dempwolff,  
 M. Diedenhofen,  Hainam Do,  R. G. Edgar,  Po-Tung Fang,  S. Fatehi,  
 Qingguo Feng,  J. Fosso-Tande,  Qinghui Ge,  A. Ghysels,  G. Gidofalvi,  
 J. Gomes,  J. Gonthier,  A. Gunina,  M. W. D. Hanson-Heine,  
 P. H. P. Harbach,  A. W. Hauser,  J. E. Herr,  E. G. Hohenstein,  
 Z. C. Holden,  Kerwin Hui,  T.-C. Jagau,  Hyunjun Ji,  B. Kaduk,  
 K. Khistyaev,  Jaehoon Kim,  P. Klunzinger,  K. Koh,  D. Kosenkov,  
 L. Koulias,  T. Kowalczyk,  C. M. Krauter,  A. Kunitsa,  Ka Un Lao,  
 A. Laurent,  K. V. Lawler,  Joonho Lee,  D. Lefrancois,  S. Lehtola,  
 D. S. Levine,  Yi-Pei Li,  You-Sheng Lin,  Fenglai Liu,  E. Livshits,  
 A. Luenser,  P. Manohar,  E. Mansoor,  S. F. Manzer,  Shan-Ping Mao,  
 Yuezhi Mao,  N. Mardirossian,  A. V. Marenich,  T. Markovich,  
 L. A. Martinez-Martinez,  S. A. Maurer,  N. J. Mayhall,  S. C. McKenzie,  
 J.-M. Mewes,  A. F. Morrison,  J. W. Mullinax,  K. Nanda,  
 T. S. Nguyen-Beck,  R. Olivares-Amaya,  J. A. Parkhill,  T. M. Perrine,  
 F. Plasser,  S. Prager,  A. Prociuk,  E. Ramos,  D. R. Rehn,  F. Rob,  
 M. Schneider,  N. Sergueev,  S. M. Sharada,  S. Sharma,  D. W. Small,  
 T. Stauch,  T. Stein,  Yu-Chuan Su,  A. J. W. Thom,  A. Tkatchenko,  
 T. Tsuchimochi,  L. Vogt,  O. Vydrov,  M. A. Watson,  J. Wenzel,  
 M. de Wergifosse,  T. A. Wesolowski,  A. White,  J. Witte,  A. Yamada,  
 Jun Yang,  K. Yao,  S. Yeganeh,  S. R. Yost,  Zhi-Qiang You,  A. Zech,  
 Igor Ying Zhang,  Xing Zhang,  Yan Zhao,  Ying Zhu,  B. R. Brooks,  
 G. K. L. Chan,  C. J. Cramer,  M. S. Gordon,  W. J. Hehre,  A. Klamt,  
 M. W. Schmidt,  C. D. Sherrill,  D. G. Truhlar,  A. Aspuru-Guzik,  R. Baer,  
 A. T. Bell,  N. A. Besley,  Jeng-Da Chai,  R. A. DiStasio Jr.,  A. Dreuw,  
 B. D. Dunietz,  T. R. Furlani,  Chao-Ping Hsu,  Yousung Jung,  Jing Kong,  
 D. S. Lambrecht,  WanZhen Liang,  C. Ochsenfeld,  V. A. Rassolov,  
 L. V. Slipchenko,  J. E. Subotnik,  T. Van Voorhis,  J. M. Herbert,  
 A. I. Krylov,  P. M. W. Gill,  M. Head-Gordon

 Contributors to earlier versions of Q-Chem not listed above: 
 R. D. Adamson,  B. Austin,  J. Baker,  G. J. O. Beran,  K. Brandhorst,  
 S. T. Brown,  E. F. C. Byrd,  A. K. Chakraborty,  C.-L. Cheng,  
 Siu Hung Chien,  D. M. Chipman,  D. L. Crittenden,  H. Dachsel,  
 R. J. Doerksen,  A. D. Dutoi,  L. Fusti-Molnar,  W. A. Goddard III,  
 A. Golubeva-Zadorozhnaya,  S. R. Gwaltney,  G. Hawkins,  A. Heyden,  
 S. Hirata,  G. Kedziora,  F. J. Keil,  C. Kelley,  Jihan Kim,  R. A. King,  
 R. Z. Khaliullin,  P. P. Korambath,  W. Kurlancheek,  A. M. Lee,  M. S. Lee,  
 S. V. Levchenko,  Ching Yeh Lin,  D. Liotard,  R. C. Lochan,  I. Lotan,  
 P. E. Maslen,  N. Nair,  D. P. O'Neill,  D. Neuhauser,  E. Neuscamman,  
 C. M. Oana,  R. Olson,  B. Peters,  R. Peverati,  P. A. Pieniazek,  
 Y. M. Rhee,  J. Ritchie,  M. A. Rohrdanz,  E. Rosta,  N. J. Russ,  
 H. F. Schaefer III,  N. E. Schultz,  N. Shenvi,  A. C. Simmonett,  A. Sodt,  
 D. Stuck,  K. S. Thanthiriwatte,  V. Vanovschi,  Tao Wang,  A. Warshel,  
 C. F. Williams,  Q. Wu,  X. Xu,  W. Zhang

 Please cite Q-Chem as follows:
 Y. Shao et al., Mol. Phys. 113, 184-215 (2015)
 DOI: 10.1080/00268976.2014.952696

 Q-Chem 5.0.2 for Intel X86 EM64T Linux

 Parts of Q-Chem use Armadillo 5.200.1 (Boston Tea Smuggler).
 http://arma.sourceforge.net/

 Q-Chem begins on Thu Feb  1 11:55:40 2018  


Host: 0

     Scratch files written to /home/jcartus/scratch/12_benF6-ben_mono1.dir//
 Using version located at /usr/local/qchem/bin/qchem

 Parallel job on  1  processors

Total Memory Limit in MB = 2000
Mega-Array Size in MB = 192

Checking the input file for inconsistencies... 	...done.
Finally everything over in PARseQInput

--------------------------------------------------------------
User input:
--------------------------------------------------------------
$rem
SCF_PRINT                     1
BASIS                         6-311++g**
SCF_SAVE_MATRICES             1
SCF_CONVERGENCE               5
SCF_FINAL_PRINT               1
METHOD                        hf
JOBTYPE                       sp
$end

$molecule
0 1
F    -2.268328468    -1.958202889    -0.323025092
F    -2.703690585    0.725550383    -0.25311904
C    0.039970416    -1.620649062    0.000627529
C    -1.246714568    -1.122331457    -0.158188956
C    -1.468960632    0.248281616    -0.123448223
C    -0.404843176    1.120110725    0.068321788
C    0.88286916    0.622303553    0.223239994
C    1.104164281    -0.748842052    0.192245986
F    -0.620157741    2.430732722    0.113060107
F    1.901232288    1.45642417    0.399377483
F    0.250821528    -2.933836485    -0.010169125
F    2.333223855    -1.227390582    0.354782679
$end


--------------------------------------------------------------
 ----------------------------------------------------------------
             Standard Nuclear Orientation (Angstroms)
    I     Atom           X                Y                Z
 ----------------------------------------------------------------
    1      F       0.8665059943    -2.5775301394    -0.0001939389
    2      F      -1.7991800127    -2.0380876962     0.0086726321
    3      C       1.3611144796    -0.2748785050    -0.0099530342
    4      C       0.4425983293    -1.3167109686    -0.0137686607
    5      C      -0.9187596438    -1.0412618930    -0.0102044882
    6      C      -1.3612882084     0.2753033152    -0.0045287075
    7      C      -0.4429139181     1.3177059783    -0.0047339417
    8      C       0.9186324611     1.0417280844    -0.0044366786
    9      F      -2.6639696969     0.5377573966     0.0106598738
   10      F      -0.8662519205     2.5765254741    -0.0066026721
   11      F       2.6648416753    -0.5374915294     0.0091719632
   12      F       1.7984649607     2.0375691536     0.0100424825
 ----------------------------------------------------------------
 Molecular Point Group                 C1    NOp =  1
 Largest Abelian Subgroup              C1    NOp =  1
 Nuclear Repulsion Energy =   734.3703334876 hartrees
 There are       45 alpha and       45 beta electrons
 Requested basis set is 6-311++G(d,p)
 There are 72 shells and 264 basis functions

 Total QAlloc Memory Limit   2000 MB
 Mega-Array Size       188 MB
 MEM_STATIC part       192 MB

finished with qalloc call

                       Distance Matrix (Angstroms)
             F (  1)   F (  2)   C (  3)   C (  4)   C (  5)   C (  6)
   F (  2)  2.719735
   C (  3)  2.355194  3.618938
   C (  4)  1.330243  2.355092  1.388921
   C (  5)  2.355291  1.330097  2.405238  1.388949
   C (  6)  3.619633  2.354507  2.777446  2.405951  1.388959
   C (  7)  4.109436  3.619529  2.406423  2.779274  2.406489  1.389250
   C (  8)  3.619636  4.107547  1.388983  2.406020  2.777569  2.405295
   F (  9)  4.708438  2.717139  4.106349  3.618068  2.353613  1.328944
   F ( 10)  5.437534  4.707998  3.618242  4.107363  3.618170  2.353867
   F ( 11)  2.719532  4.709488  1.330051  2.355011  3.618889  4.107377
   F ( 12)  4.708269  5.436362  2.353527  3.618029  4.106449  3.617987
             C (  7)   C (  8)   F (  9)   F ( 10)   F ( 11)
   C (  8)  1.389234
   F (  9)  2.354070  3.617907
   F ( 10)  1.328098  2.354022  2.718209
   F ( 11)  3.619405  2.354435  5.436211  4.708075
   F ( 12)  2.354188  1.328915  4.707734  2.718725  2.716900

 Job number = 2, Threshold = 1.00E-08
Integral type ranges set in mkLRange.C for JobNum: 2  <1-21|1-21>
Symmetry turned off temporarily
 Using the largest function pair in Schwarz integrals
Total number of integrals generated =          587712
Symmetry turned back on
 A cutoff of  1.0D-08 yielded   2007 shell pairs
 There are     28419 function pairs (     30792 Cartesian)
 Job number = 11, Threshold = 1.00E-08
Integral type ranges set in mkLRange.C for JobNum: 11  <1-21|22-22>
Total number of integrals generated =          369504
 Smallest overlap matrix eigenvalue = 1.38E-06

 Q-Chem warning in module /usr/local/qchem/stvman/mkSTV.C, line 295:

 Overlap eigenvalue is smaller than square root of threshold

 Multipole matrices computed through 2nd order

 Scale SEOQF with 1.000000e-01/1.000000e-01/1.000000e-01

 Standard Electronic Orientation quadrupole field applied
 Nucleus-field energy     =     0.0000000251 hartrees
 ENuRep (before)= 734.3703334876
 ENucField = 0.0000000251
 ENuRep (after) = 734.3703335127
 Guess from superposition of atomic densities
 Warning:  Energy on first SCF cycle will be non-variational
 SAD guess density has 90.000000 electrons

 ==================================================
    GEN_SCFMAN: A general SCF calculation manager  
                                                   
    Authors:                                       
        -- Eric Jon Sundstrom 2008-2014            
        -- Paul Horn 2010-2015                     
        -- Yuezhi Mao 2012-                        
        -- Dmitri Zuev 2014                        
        -- Alec White 2015-                        
        -- David Stuck 2015                        
        -- Shaama M.S. 2015                        
        -- Shane Yost 2015-                         
        -- Joonho Lee 2016-                        
        -- David Small 2016-                       
        -- Daniel Levine 2016-                     
        -- Susi Lehtola 2017-                      
        -- Hugh Burton 2017-                       
 ==================================================
 Hartree-Fock
Finding J and K together
 Job number = 22, Threshold = 1.00E-08
Integral type ranges set in mkLRange.C for JobNum: 22  <1-21|1-21>
 MakeJK  time:  CPU       9.29 s  wall       9.64 s
 HF Exchange:              -92.42966002283367
 One-Electron:             -2602.57630772980974
 Total Coulomb:            1132.93907442610907
 Nuclear repulsion:        734.37033351269679
 A restricted SCF calculation will be
 performed using DIIS
 SCF converges when DIIS error is below 1.0e-05
 ---------------------------------------
  Cycle       Energy         DIIS error
 ---------------------------------------
Finding J and K together
 Job number = 22, Threshold = 1.00E-08
Integral type ranges set in mkLRange.C for JobNum: 22  <1-21|1-21>
 MakeJK  time:  CPU      42.14 s  wall      46.32 s
 HF Exchange:              -91.71193161312490
 One-Electron:             -2598.02327183562147
 Total Coulomb:            1131.59967427027163
 Nuclear repulsion:        734.37033351269679
    1    -827.6965598138      4.28e-02  
Finding J and K together
 Job number = 22, Threshold = 1.00E-08
Integral type ranges set in mkLRange.C for JobNum: 22  <1-21|1-21>
 MakeJK  time:  CPU      43.79 s  wall      44.89 s
 HF Exchange:              -91.28895218572571
 One-Electron:             -2601.24490726792237
 Total Coulomb:            1134.23929176371007
 Nuclear repulsion:        734.37033351269679
    2    -823.7651956658      5.28e-03  
Finding J and K together
 Job number = 22, Threshold = 1.00E-08
Integral type ranges set in mkLRange.C for JobNum: 22  <1-21|1-21>
 MakeJK  time:  CPU      43.48 s  wall      45.01 s
 HF Exchange:              -91.71856667071332
 One-Electron:             -2601.91622123289653
 Total Coulomb:            1135.28408434216090
 Nuclear repulsion:        734.37033351269679
    3    -823.9242341772      3.14e-03  
Finding J and K together
 Job number = 22, Threshold = 1.00E-08
Integral type ranges set in mkLRange.C for JobNum: 22  <1-21|1-21>
 MakeJK  time:  CPU      43.22 s  wall      44.71 s
 HF Exchange:              -91.62471725067336
 One-Electron:             -2601.30333054319044
 Total Coulomb:            1134.57431007221385
 Nuclear repulsion:        734.37033351269679
    4    -823.9803700488      6.61e-04  
Finding J and K together
 Job number = 22, Threshold = 1.00E-08
Integral type ranges set in mkLRange.C for JobNum: 22  <1-21|1-21>
 MakeJK  time:  CPU      42.69 s  wall      45.53 s
 HF Exchange:              -91.64177950118925
 One-Electron:             -2601.45158981540317
 Total Coulomb:            1134.73940673514062
 Nuclear repulsion:        734.37033351269679
    5    -823.9834042090      1.39e-04  
Finding J and K together
 Job number = 22, Threshold = 1.00E-08
Integral type ranges set in mkLRange.C for JobNum: 22  <1-21|1-21>
 MakeJK  time:  CPU      43.92 s  wall      44.75 s
 HF Exchange:              -91.64168932417083
 One-Electron:             -2601.44848601599324
 Total Coulomb:            1134.73619986213998
 Nuclear repulsion:        734.37033351269679
    6    -823.9836290688      2.51e-05  
    7    -823.9836419653      7.94e-06  Convergence criterion met
 ---------------------------------------
 SCF time:   CPU 272.07s  wall 284.00s 
 Total energy in the final basis set =     -823.9836419653
 HF Exchange:              -91.64168932417083
 One-Electron:             -2601.44848601599324
 Total Coulomb:            1134.73619986213998
 Nuclear repulsion:        734.37033351269679
Wall  1 = 285
Clock 1 = 272.53005981445312
 ==================================================
                  Done GEN_SCFMAN                  
 ==================================================

Symmetry turned off temporarily

 --------------------------------------------------------------

                    Orbital Energies (a.u.)
 --------------------------------------------------------------

 Alpha MOs
 -- Occupied --
-26.368 -26.367 -26.367 -26.367 -26.367 -26.367 -11.401 -11.400
-11.400 -11.399 -11.399 -11.398  -1.702  -1.695  -1.695  -1.681
 -1.681  -1.674  -1.243  -1.099  -1.099  -0.949  -0.949  -0.869
 -0.844  -0.835  -0.785  -0.783  -0.783  -0.783  -0.783  -0.758
 -0.758  -0.734  -0.734  -0.726  -0.714  -0.714  -0.704  -0.647
 -0.647  -0.612  -0.551  -0.398  -0.398
 -- Virtual --
  0.048   0.083   0.083   0.085   0.085   0.099   0.108   0.108
  0.130   0.134   0.134   0.142   0.167   0.173   0.173   0.179
  0.189   0.189   0.200   0.200   0.204   0.240   0.240   0.246
  0.246   0.284   0.285   0.302   0.302   0.328   0.337   0.398
  0.398   0.399   0.402   0.413   0.413   0.414   0.432   0.432
  0.459   0.459   0.469   0.475   0.475   0.478   0.482   0.482
  0.502   0.502   0.526   0.564   0.564   0.590   0.590   0.617
  0.617   0.620   0.641   0.641   0.644   0.659   0.698   0.698
  0.714   0.738   0.778   0.778   0.869   0.908   0.908   0.921
  0.922   0.941   0.943   1.011   1.055   1.055   1.106   1.106
  1.114   1.115   1.124   1.159   1.212   1.212   1.236   1.363
  1.364   1.373   1.394   1.395   1.446   1.489   1.594   1.621
  1.631   1.631   1.655   1.656   1.664   1.674   1.674   1.675
  1.676   1.701   1.730   1.758   1.783   1.783   1.787   1.787
  1.810   1.876   1.915   1.915   1.979   1.979   2.028   2.028
  2.054   2.054   2.104   2.104   2.178   2.193   2.280   2.281
  2.343   2.343   2.421   2.421   2.483   2.484   2.516   2.518
  2.670   2.683   2.747   2.747   2.899   3.019   3.019   3.161
  3.161   3.359   3.417   3.467   3.502   3.503   3.524   3.588
  3.588   3.802   3.803   4.074   4.124   4.124   4.158   4.170
  4.170   4.172   4.180   4.180   4.194   4.240   4.240   4.241
  4.328   4.346   4.375   4.376   4.382   4.383   4.430   4.430
  4.477   4.492   4.492   4.605   4.605   4.664   5.075   5.258
  5.259   5.308   5.381   5.381   5.464   6.866   6.903   6.903
  6.935   6.935   6.947   6.985   7.020   7.020   7.071   7.071
  7.109   7.172   7.355   7.356   7.446   7.447   7.535  24.436
 24.917  24.918  25.095  25.096  25.211  68.685  68.728  68.728
 68.763  68.763  68.844
 --------------------------------------------------------------

          Ground-State Mulliken Net Atomic Charges

     Atom                 Charge (a.u.)
  ----------------------------------------
      1 F                    -0.265210
      2 F                    -0.264966
      3 C                     0.263112
      4 C                     0.265623
      5 C                     0.263176
      6 C                     0.265791
      7 C                     0.265607
      8 C                     0.265891
      9 F                    -0.264541
     10 F                    -0.264992
     11 F                    -0.264920
     12 F                    -0.264572
  ----------------------------------------
  Sum of atomic charges =    -0.000000

 -----------------------------------------------------------------
                    Cartesian Multipole Moments
 -----------------------------------------------------------------
    Charge (ESU x 10^10)
                -0.0000
    Dipole Moment (Debye)
         X      -0.0062      Y       0.0196      Z      -0.0439
       Tot       0.0485
    Quadrupole Moments (Debye-Ang)
        XX     -71.8923     XY      -0.0104     YY     -71.8612
        XZ      -0.0097     YZ       0.0308     ZZ     -60.6263
    Octopole Moments (Debye-Ang^2)
       XXX      -0.0473    XXY       0.0478    XYY      -0.0141
       YYY       0.1480    XXZ      -0.1352    XYZ      -0.0504
       YYZ       0.0088    XZZ      -0.0033    YZZ       0.0107
       ZZZ       0.4038
    Hexadecapole Moments (Debye-Ang^3)
      XXXX    -965.0264   XXXY      -0.0358   XXYY    -321.6452
      XYYY      -0.0160   YYYY    -964.8326   XXXZ       0.0420
      XXYZ      -0.0310   XYYZ      -0.0338   YYYZ       0.0048
      XXZZ    -152.0397   XYZZ      -0.0013   YYZZ    -152.0290
      XZZZ       0.0459   YZZZ      -0.1464   ZZZZ     -52.4995
 -----------------------------------------------------------------
 Mayer SCF Bond Order, atomic valence on the diagonal:

            1           2           3           4           5           6
    1   0.7807726   0.0032457  -0.2472912   1.5302986  -0.2471934  -0.1332081
    2   0.0032457   0.7810620  -0.1330837  -0.2472718   1.5315140  -0.2482919
    3  -0.2472912  -0.1330837   3.7283325   1.4078730  -0.0063688   0.1534275
    4   1.5302986  -0.2472718   1.4078730   3.7224933   1.4076527  -0.0072648
    5  -0.2471934   1.5315140  -0.0063688   1.4076527   3.7278723   1.4093691
    6  -0.1332081  -0.2482919   0.1534275  -0.0072648   1.4093691   3.7261515
    7  -0.0003430  -0.1332394  -0.0053690   0.1523053  -0.0052690   1.4080633
    8  -0.1332268  -0.0003032   1.4093141  -0.0071722   0.1533480  -0.0092221
    9   0.0013905   0.0032339  -0.0005689  -0.1333494  -0.2472817   1.5294405
   10   0.0024613   0.0014059  -0.1342222   0.0002530  -0.1342695  -0.2429812
   11   0.0032480   0.0013959   1.5318052  -0.2474323  -0.1330883  -0.0003255
   12   0.0013911   0.0024567  -0.2471836  -0.1333989  -0.0005409  -0.1328553
            7           8           9          10          11          12
    1  -0.0003430  -0.1332268   0.0013905   0.0024613   0.0032480   0.0013911
    2  -0.1332394  -0.0003032   0.0032339   0.0014059   0.0013959   0.0024567
    3  -0.0053690   1.4093141  -0.0005689  -0.1342222   1.5318052  -0.2471836
    4   0.1523053  -0.0071722  -0.1333494   0.0002530  -0.2474323  -0.1333989
    5  -0.0052690   0.1533480  -0.2472817  -0.1342695  -0.1330883  -0.0005409
    6   1.4080633  -0.0092221   1.5294405  -0.2429812  -0.0003255  -0.1328553
    7   3.7194860   1.4080066  -0.2463887   1.5210427  -0.1332323  -0.2460903
    8   1.4080066   3.7256462  -0.1328638  -0.2428357  -0.2483377   1.5289391
    9  -0.2463887  -0.1328638   0.7805659   0.0031301   0.0024573   0.0013660
   10   1.5210427  -0.2428357   0.0031301   0.7785094   0.0014049   0.0031202
   11  -0.1332323  -0.2483377   0.0024573   0.0014049   0.7811282   0.0032331
   12  -0.2460903   1.5289391   0.0013660   0.0031202   0.0032331   0.7804373


 JobOver = TRUE
Archival summary:
1\1\qciep03\SP\HF\BasisUnspecified\66\jcartus\ThuFeb112:00:262018ThuFeb112:00:262018\0\\#,HF,BasisUnspecified,\\0,1\F\C,1,1.32894\C,2,1.38896,1,119.97\F,3,1.3301,2,119.962,1,-0.452719,0\C,3,1.38895,2,120.017,1,-179.414,0\F,5,1.33024,3,120.018,2,179.054,0\C,5,1.38892,3,119.961,2,0.080983,0\F,7,1.33005,5,120.011,3,178.879,0\C,7,1.38898,5,120.023,3,-0.0885883,0\F,9,1.32891,7,119.963,5,179.461,0\C,9,1.38923,7,120.034,5,-0.0954258,0\F,11,1.3281,9,120.046,7,-179.644,0\\HF=-823.983642\\@

 Total job time:  286.71s(wall), 273.76s(cpu) 
 Thu Feb  1 12:00:26 2018

        *************************************************************
        *                                                           *
        *  Thank you very much for using Q-Chem.  Have a nice day.  *
        *                                                           *
        *************************************************************


*** MISSION COMPLETED -- STARFLEET OUT ***

0 sent ACK to 0 
now end server 0 ... 
