Process 0 of 1 is on qciep03 - thread support 0
initial socket setup ...start
initial socket setup ...done 
now start server 0 ... 
qciep03.tugraz.at 127.0.1
Q-Chem Developer Version! Running on 127.0.1.*
                  Welcome to Q-Chem
     A Quantum Leap Into The Future Of Chemistry


 Q-Chem 5.0, Q-Chem, Inc., Pleasanton, CA (2017)

 Yihan Shao,  Zhengting Gan,  E. Epifanovsky,  A. T. B. Gilbert,  M. Wormit,  
 J. Kussmann,  A. W. Lange,  A. Behn,  Jia Deng,  Xintian Feng,  D. Ghosh,  
 M. Goldey,  P. R. Horn,  L. D. Jacobson,  I. Kaliman,  T. Kus,  A. Landau,  
 Jie Liu,  E. I. Proynov,  R. M. Richard,  R. P. Steele,  E. J. Sundstrom,  
 H. L. Woodcock III,  P. M. Zimmerman,  D. Zuev,  B. Albrecht,  E. Alguire,  
 S. A. Baeppler,  D. Barton,  Z. Benda,  Y. A. Bernard,  E. J. Berquist,  
 K. B. Bravaya,  H. Burton,  D. Casanova,  Chun-Min Chang,  Yunqing Chen,  
 A. Chien,  K. D. Closser,  M. P. Coons,  S. Dasgupta,  A. L. Dempwolff,  
 M. Diedenhofen,  Hainam Do,  R. G. Edgar,  Po-Tung Fang,  S. Fatehi,  
 Qingguo Feng,  J. Fosso-Tande,  Qinghui Ge,  A. Ghysels,  G. Gidofalvi,  
 J. Gomes,  J. Gonthier,  A. Gunina,  M. W. D. Hanson-Heine,  
 P. H. P. Harbach,  A. W. Hauser,  J. E. Herr,  E. G. Hohenstein,  
 Z. C. Holden,  Kerwin Hui,  T.-C. Jagau,  Hyunjun Ji,  B. Kaduk,  
 K. Khistyaev,  Jaehoon Kim,  P. Klunzinger,  K. Koh,  D. Kosenkov,  
 L. Koulias,  T. Kowalczyk,  C. M. Krauter,  A. Kunitsa,  Ka Un Lao,  
 A. Laurent,  K. V. Lawler,  Joonho Lee,  D. Lefrancois,  S. Lehtola,  
 D. S. Levine,  Yi-Pei Li,  You-Sheng Lin,  Fenglai Liu,  E. Livshits,  
 A. Luenser,  P. Manohar,  E. Mansoor,  S. F. Manzer,  Shan-Ping Mao,  
 Yuezhi Mao,  N. Mardirossian,  A. V. Marenich,  T. Markovich,  
 L. A. Martinez-Martinez,  S. A. Maurer,  N. J. Mayhall,  S. C. McKenzie,  
 J.-M. Mewes,  A. F. Morrison,  J. W. Mullinax,  K. Nanda,  
 T. S. Nguyen-Beck,  R. Olivares-Amaya,  J. A. Parkhill,  T. M. Perrine,  
 F. Plasser,  S. Prager,  A. Prociuk,  E. Ramos,  D. R. Rehn,  F. Rob,  
 M. Schneider,  N. Sergueev,  S. M. Sharada,  S. Sharma,  D. W. Small,  
 T. Stauch,  T. Stein,  Yu-Chuan Su,  A. J. W. Thom,  A. Tkatchenko,  
 T. Tsuchimochi,  L. Vogt,  O. Vydrov,  M. A. Watson,  J. Wenzel,  
 M. de Wergifosse,  T. A. Wesolowski,  A. White,  J. Witte,  A. Yamada,  
 Jun Yang,  K. Yao,  S. Yeganeh,  S. R. Yost,  Zhi-Qiang You,  A. Zech,  
 Igor Ying Zhang,  Xing Zhang,  Yan Zhao,  Ying Zhu,  B. R. Brooks,  
 G. K. L. Chan,  C. J. Cramer,  M. S. Gordon,  W. J. Hehre,  A. Klamt,  
 M. W. Schmidt,  C. D. Sherrill,  D. G. Truhlar,  A. Aspuru-Guzik,  R. Baer,  
 A. T. Bell,  N. A. Besley,  Jeng-Da Chai,  R. A. DiStasio Jr.,  A. Dreuw,  
 B. D. Dunietz,  T. R. Furlani,  Chao-Ping Hsu,  Yousung Jung,  Jing Kong,  
 D. S. Lambrecht,  WanZhen Liang,  C. Ochsenfeld,  V. A. Rassolov,  
 L. V. Slipchenko,  J. E. Subotnik,  T. Van Voorhis,  J. M. Herbert,  
 A. I. Krylov,  P. M. W. Gill,  M. Head-Gordon

 Contributors to earlier versions of Q-Chem not listed above: 
 R. D. Adamson,  B. Austin,  J. Baker,  G. J. O. Beran,  K. Brandhorst,  
 S. T. Brown,  E. F. C. Byrd,  A. K. Chakraborty,  C.-L. Cheng,  
 Siu Hung Chien,  D. M. Chipman,  D. L. Crittenden,  H. Dachsel,  
 R. J. Doerksen,  A. D. Dutoi,  L. Fusti-Molnar,  W. A. Goddard III,  
 A. Golubeva-Zadorozhnaya,  S. R. Gwaltney,  G. Hawkins,  A. Heyden,  
 S. Hirata,  G. Kedziora,  F. J. Keil,  C. Kelley,  Jihan Kim,  R. A. King,  
 R. Z. Khaliullin,  P. P. Korambath,  W. Kurlancheek,  A. M. Lee,  M. S. Lee,  
 S. V. Levchenko,  Ching Yeh Lin,  D. Liotard,  R. C. Lochan,  I. Lotan,  
 P. E. Maslen,  N. Nair,  D. P. O'Neill,  D. Neuhauser,  E. Neuscamman,  
 C. M. Oana,  R. Olson,  B. Peters,  R. Peverati,  P. A. Pieniazek,  
 Y. M. Rhee,  J. Ritchie,  M. A. Rohrdanz,  E. Rosta,  N. J. Russ,  
 H. F. Schaefer III,  N. E. Schultz,  N. Shenvi,  A. C. Simmonett,  A. Sodt,  
 D. Stuck,  K. S. Thanthiriwatte,  V. Vanovschi,  Tao Wang,  A. Warshel,  
 C. F. Williams,  Q. Wu,  X. Xu,  W. Zhang

 Please cite Q-Chem as follows:
 Y. Shao et al., Mol. Phys. 113, 184-215 (2015)
 DOI: 10.1080/00268976.2014.952696

 Q-Chem 5.0.2 for Intel X86 EM64T Linux

 Parts of Q-Chem use Armadillo 5.200.1 (Boston Tea Smuggler).
 http://arma.sourceforge.net/

 Q-Chem begins on Thu Feb  1 11:56:55 2018  


Host: 0

     Scratch files written to /home/jcartus/scratch/04_methane-I2.dir//
 Using version located at /usr/local/qchem/bin/qchem

 Parallel job on  1  processors

Total Memory Limit in MB = 2000
Mega-Array Size in MB = 192

Checking the input file for inconsistencies... 	...done.
Finally everything over in PARseQInput

--------------------------------------------------------------
User input:
--------------------------------------------------------------
$rem
SCF_PRINT                     1
BASIS                         6-311++g**
SCF_SAVE_MATRICES             1
SCF_CONVERGENCE               5
SCF_FINAL_PRINT               1
METHOD                        hf
JOBTYPE                       sp
$end

$molecule
0 1
C    -0.032603    -0.245329    -0.035933
I    -2.421008954    -2.638344596    -1.211091634
I    -4.195887954    -4.415349596    -2.083913634
H    -0.980553    0.254481    -0.212468
H    -0.160128    -1.020226    0.714308
H    0.692193    0.480189    0.320357
H    0.328323    -0.68552    -0.960895
$end


--------------------------------------------------------------
 ----------------------------------------------------------------
             Standard Nuclear Orientation (Angstroms)
    I     Atom           X                Y                Z
 ----------------------------------------------------------------
    1      C      -4.4855291985     0.0003069602     0.0004269857
    2      I      -0.9061432337    -0.0001355308    -0.0001883873
    3      I       1.7527588602     0.0000777603     0.0001080818
    4      H      -4.1289726757     0.4124230004     0.9399011261
    5      H      -4.1287556742     0.6079238381    -0.8260740284
    6      H      -5.5711848054     0.0000862830     0.0002584457
    7      H      -4.1285398544    -1.0192130474    -0.1123912654
 ----------------------------------------------------------------
 Molecular Point Group                 C1    NOp =  1
 Largest Abelian Subgroup              C1    NOp =  1
 Nuclear Repulsion Energy =   695.3365944783 hartrees
 There are       58 alpha and       58 beta electrons
 Requested basis set is 6-311++G(d,p)
 There are 74 shells and 174 basis functions

 Total QAlloc Memory Limit   2000 MB
 Mega-Array Size       188 MB
 MEM_STATIC part       192 MB

finished with qalloc call

                       Distance Matrix (Angstroms)
             C (  1)   I (  2)   I (  3)   H (  4)   H (  5)   H (  6)
   I (  2)  3.579386
   I (  3)  6.238288  2.658902
   H (  4)  1.086086  3.382396  5.970595
   H (  5)  1.086089  3.381871  5.970282  1.776764
   H (  6)  1.085656  4.665042  7.323944  1.770007  1.769998
   H (  7)  1.086089  3.381560  5.970032  1.776767  1.776772  1.769996


 Job number = 2, Threshold = 1.00E-08
Integral type ranges set in mkLRange.C for JobNum: 2  <1-21|1-21>
Symmetry turned off temporarily
 Using the largest function pair in Schwarz integrals
Total number of integrals generated =          163565
Symmetry turned back on
 A cutoff of  1.0D-08 yielded   1861 shell pairs
 There are     10107 function pairs (     11417 Cartesian)
 Job number = 11, Threshold = 1.00E-08
Integral type ranges set in mkLRange.C for JobNum: 11  <1-21|22-22>
Total number of integrals generated =           78498
 Smallest overlap matrix eigenvalue = 9.59E-04
 Multipole matrices computed through 2nd order

 Scale SEOQF with 1.000000e-02/1.000000e-01/1.000000e-01

 Standard Electronic Orientation quadrupole field applied
 Nucleus-field energy     =     0.0000000014 hartrees
 ENuRep (before)= 695.3365944783
 ENucField = 0.0000000014
 ENuRep (after) = 695.3365944797
 Guess from superposition of atomic densities
 Warning:  Energy on first SCF cycle will be non-variational
 SAD guess density has 116.000000 electrons

 ==================================================
    GEN_SCFMAN: A general SCF calculation manager  
                                                   
    Authors:                                       
        -- Eric Jon Sundstrom 2008-2014            
        -- Paul Horn 2010-2015                     
        -- Yuezhi Mao 2012-                        
        -- Dmitri Zuev 2014                        
        -- Alec White 2015-                        
        -- David Stuck 2015                        
        -- Shaama M.S. 2015                        
        -- Shane Yost 2015-                         
        -- Joonho Lee 2016-                        
        -- David Small 2016-                       
        -- Daniel Levine 2016-                     
        -- Susi Lehtola 2017-                      
        -- Hugh Burton 2017-                       
 ==================================================
 Hartree-Fock
Finding J and K together
 Job number = 22, Threshold = 1.00E-08
Integral type ranges set in mkLRange.C for JobNum: 22  <1-21|1-21>
 MakeJK  time:  CPU       7.43 s  wall       7.75 s
 HF Exchange:              -354.36284968097777
 One-Electron:             -20458.75521303346613
 Total Coulomb:            6243.83442606239078
 Nuclear repulsion:        695.33659447970240
 A restricted SCF calculation will be
 performed using DIIS
 SCF converges when DIIS error is below 1.0e-05
 ---------------------------------------
  Cycle       Energy         DIIS error
 ---------------------------------------
Finding J and K together
 Job number = 22, Threshold = 1.00E-08
Integral type ranges set in mkLRange.C for JobNum: 22  <1-21|1-21>
 MakeJK  time:  CPU      12.36 s  wall      12.74 s
 HF Exchange:              -354.16019545765442
 One-Electron:             -20448.83751921127259
 Total Coulomb:            6233.83760428314781
 Nuclear repulsion:        695.33659447970240
    1  -13873.9470421723      3.36e-02  
Finding J and K together
 Job number = 22, Threshold = 1.00E-08
Integral type ranges set in mkLRange.C for JobNum: 22  <1-21|1-21>
 MakeJK  time:  CPU      12.33 s  wall      12.35 s
 HF Exchange:              -354.40561582342838
 One-Electron:             -20458.19347317825304
 Total Coulomb:            6243.41269121215919
 Nuclear repulsion:        695.33659447970240
    2  -13873.8235159061      2.74e-03  
Finding J and K together
 Job number = 22, Threshold = 1.00E-08
Integral type ranges set in mkLRange.C for JobNum: 22  <1-21|1-21>
 MakeJK  time:  CPU      12.28 s  wall      12.31 s
 HF Exchange:              -354.32258896812863
 One-Electron:             -20454.95430683963787
 Total Coulomb:            6240.08695352995346
 Nuclear repulsion:        695.33659447970240
    3  -13873.8498033098      1.27e-03  
Finding J and K together
 Job number = 22, Threshold = 1.00E-08
Integral type ranges set in mkLRange.C for JobNum: 22  <1-21|1-21>
 MakeJK  time:  CPU      12.23 s  wall      12.33 s
 HF Exchange:              -354.34430132869039
 One-Electron:             -20455.35842147832955
 Total Coulomb:            6240.51247470444287
 Nuclear repulsion:        695.33659447970240
    4  -13873.8533477981      2.97e-04  
Finding J and K together
 Job number = 22, Threshold = 1.00E-08
Integral type ranges set in mkLRange.C for JobNum: 22  <1-21|1-21>
 MakeJK  time:  CPU      12.28 s  wall      12.71 s
 HF Exchange:              -354.34517225640030
 One-Electron:             -20455.41651325139901
 Total Coulomb:            6240.57141273401066
 Nuclear repulsion:        695.33659447970240
    5  -13873.8536536229      6.52e-05  
Finding J and K together
 Job number = 22, Threshold = 1.00E-08
Integral type ranges set in mkLRange.C for JobNum: 22  <1-21|1-21>
 MakeJK  time:  CPU      12.40 s  wall      12.78 s
 HF Exchange:              -354.34602761940806
 One-Electron:             -20455.42090811410526
 Total Coulomb:            6240.57666103723113
 Nuclear repulsion:        695.33659447970240
    6  -13873.8536782941      1.42e-05  
    7  -13873.8536802166      2.69e-06  Convergence criterion met
 ---------------------------------------
 SCF time:   CPU 82.43s  wall 85.00s 
 Total energy in the final basis set =   -13873.8536802166
 HF Exchange:              -354.34602761940806
 One-Electron:             -20455.42090811410526
 Total Coulomb:            6240.57666103723113
 Nuclear repulsion:        695.33659447970240
Wall  1 = 85
Clock 1 = 82.59842681884766
 ==================================================
                  Done GEN_SCFMAN                  
 ==================================================

Symmetry turned off temporarily

 --------------------------------------------------------------

                    Orbital Energies (a.u.)
 --------------------------------------------------------------

 Alpha MOs
 -- Occupied --
***************-180.895-180.894-169.702-169.701-169.701-169.701
*******-169.700 -37.949 -37.948 -33.138 -33.137 -33.132 -33.132
-33.131 -33.131 -24.322 -24.321 -24.320 -24.320 -24.319 -24.319
-24.315 -24.315 -24.314 -24.314 -11.216  -7.266  -7.265  -5.501
 -5.500  -5.487  -5.487  -5.486  -5.486  -2.427  -2.421  -2.419
 -2.419  -2.417  -2.417  -2.402  -2.402  -2.401  -2.401  -0.956
 -0.922  -0.786  -0.558  -0.558  -0.558  -0.471  -0.443  -0.443
 -0.360  -0.360
 -- Virtual --
 -0.010   0.045   0.079   0.080   0.080   0.149   0.149   0.179
  0.203   0.267   0.290   0.290   0.299   0.311   0.311   0.316
  0.348   0.348   0.390   0.444   0.444   0.481   0.533   0.533
  0.547   0.549   0.549   0.582   0.594   0.594   0.650   0.736
  0.736   0.854   0.871   0.871   0.879   1.029   1.054   1.193
  1.193   1.483   1.483   1.560   1.560   1.580   1.653   1.713
  1.719   1.719   1.799   1.799   1.867   2.198   2.198   2.218
  2.619   2.619   2.693   2.788   2.788   2.836   2.930   2.931
  2.931   3.286   4.200   4.203   4.203   4.395   4.395   4.441
  4.448   4.448   4.484   4.484   4.572   4.572   4.689   4.702
  4.798   6.488   6.488   6.521   6.531   6.531   6.685  25.207
 28.745  28.826  29.489  29.489  29.523  29.523  29.528  29.637
 29.824  29.824  29.851  29.851  29.866  29.866  29.889  29.906
 29.906  30.019 130.554 130.554 130.580 130.580 130.586 130.668
154.170 154.2311912.0841912.147
 --------------------------------------------------------------

          Ground-State Mulliken Net Atomic Charges

     Atom                 Charge (a.u.)
  ----------------------------------------
      1 C                    -0.511973
      2 I                     0.052260
      3 I                    -0.048374
      4 H                     0.126051
      5 H                     0.126003
      6 H                     0.130056
      7 H                     0.125978
  ----------------------------------------
  Sum of atomic charges =     0.000000

 -----------------------------------------------------------------
                    Cartesian Multipole Moments
 -----------------------------------------------------------------
    Charge (ESU x 10^10)
                 0.0000
    Dipole Moment (Debye)
         X      -0.3251      Y       0.0000      Z       0.0001
       Tot       0.3251
    Quadrupole Moments (Debye-Ang)
        XX     -58.9710     XY       0.0003     YY     -67.0188
        XZ       0.0005     YZ       0.0000     ZZ     -67.0188
    Octopole Moments (Debye-Ang^2)
       XXX      38.2502    XXY      -0.0000    XYY      13.0035
       YYY      -0.5508    XXZ       0.0002    XYZ      -0.0001
       YYZ      -0.1895    XZZ      13.0031    YZZ       0.5478
       ZZZ       0.1851
    Hexadecapole Moments (Debye-Ang^3)
      XXXX   -1628.0601   XXXY       0.0204   XXYY    -318.1622
      XYYY       2.1392   YYYY     -99.5111   XXXZ       0.0254
      XXYZ       0.0005   XYYZ       0.7361   YYYZ      -0.0005
      XXZZ    -318.1598   XYZZ      -2.1251   YYZZ     -33.1697
      XZZZ      -0.7154   YZZZ       0.0010   ZZZZ     -99.5095
 -----------------------------------------------------------------
 Mayer SCF Bond Order, atomic valence on the diagonal:

            1           2           3           4           5           6
    1   3.8658554  -0.0376848   0.0231599   0.9696884   0.9696750   0.9713497
    2  -0.0376848   0.9129808   0.9239336   0.0095919   0.0096004  -0.0020683
    3   0.0231599   0.9239336   0.9417819  -0.0044575  -0.0044504   0.0080424
    4   0.9696884   0.0095919  -0.0044575   0.9276491  -0.0169163  -0.0133450
    5   0.9696750   0.0096004  -0.0044504  -0.0169163   0.9276505  -0.0133522
    6   0.9713497  -0.0020683   0.0080424  -0.0133450  -0.0133522   0.9372706
    7   0.9696672   0.0096079  -0.0044461  -0.0169124  -0.0169060  -0.0133562
            7
    1   0.9696672
    2   0.0096079
    3  -0.0044461
    4  -0.0169124
    5  -0.0169060
    6  -0.0133562
    7   0.9276545


 JobOver = TRUE
Archival summary:
1\1\qciep03\SP\HF\BasisUnspecified\214\jcartus\ThuFeb111:58:202018ThuFeb111:58:202018\0\\#,HF,BasisUnspecified,\\0,1\I\I,1,2.6589\H,1,3.38156,2,162.356\C,3,1.08609,1,91.5405,2,179.951,0\H,4,1.08566,3,109.177,1,179.982,0\H,4,1.08609,3,109.763,1,-60.3784,0\H,4,1.08609,3,109.764,1,60.3445,0\\HF=-13873.8537\\@

 Total job time:  84.98s(wall), 83.18s(cpu) 
 Thu Feb  1 11:58:20 2018

        *************************************************************
        *                                                           *
        *  Thank you very much for using Q-Chem.  Have a nice day.  *
        *                                                           *
        *************************************************************


*** MISSION COMPLETED -- STARFLEET OUT ***

0 sent ACK to 0 
now end server 0 ... 
