Process 0 of 1 is on qciep03 - thread support 0
initial socket setup ...start
initial socket setup ...done 
now start server 0 ... 
qciep03.tugraz.at 127.0.1
Q-Chem Developer Version! Running on 127.0.1.*
                  Welcome to Q-Chem
     A Quantum Leap Into The Future Of Chemistry


 Q-Chem 5.0, Q-Chem, Inc., Pleasanton, CA (2017)

 Yihan Shao,  Zhengting Gan,  E. Epifanovsky,  A. T. B. Gilbert,  M. Wormit,  
 J. Kussmann,  A. W. Lange,  A. Behn,  Jia Deng,  Xintian Feng,  D. Ghosh,  
 M. Goldey,  P. R. Horn,  L. D. Jacobson,  I. Kaliman,  T. Kus,  A. Landau,  
 Jie Liu,  E. I. Proynov,  R. M. Richard,  R. P. Steele,  E. J. Sundstrom,  
 H. L. Woodcock III,  P. M. Zimmerman,  D. Zuev,  B. Albrecht,  E. Alguire,  
 S. A. Baeppler,  D. Barton,  Z. Benda,  Y. A. Bernard,  E. J. Berquist,  
 K. B. Bravaya,  H. Burton,  D. Casanova,  Chun-Min Chang,  Yunqing Chen,  
 A. Chien,  K. D. Closser,  M. P. Coons,  S. Dasgupta,  A. L. Dempwolff,  
 M. Diedenhofen,  Hainam Do,  R. G. Edgar,  Po-Tung Fang,  S. Fatehi,  
 Qingguo Feng,  J. Fosso-Tande,  Qinghui Ge,  A. Ghysels,  G. Gidofalvi,  
 J. Gomes,  J. Gonthier,  A. Gunina,  M. W. D. Hanson-Heine,  
 P. H. P. Harbach,  A. W. Hauser,  J. E. Herr,  E. G. Hohenstein,  
 Z. C. Holden,  Kerwin Hui,  T.-C. Jagau,  Hyunjun Ji,  B. Kaduk,  
 K. Khistyaev,  Jaehoon Kim,  P. Klunzinger,  K. Koh,  D. Kosenkov,  
 L. Koulias,  T. Kowalczyk,  C. M. Krauter,  A. Kunitsa,  Ka Un Lao,  
 A. Laurent,  K. V. Lawler,  Joonho Lee,  D. Lefrancois,  S. Lehtola,  
 D. S. Levine,  Yi-Pei Li,  You-Sheng Lin,  Fenglai Liu,  E. Livshits,  
 A. Luenser,  P. Manohar,  E. Mansoor,  S. F. Manzer,  Shan-Ping Mao,  
 Yuezhi Mao,  N. Mardirossian,  A. V. Marenich,  T. Markovich,  
 L. A. Martinez-Martinez,  S. A. Maurer,  N. J. Mayhall,  S. C. McKenzie,  
 J.-M. Mewes,  A. F. Morrison,  J. W. Mullinax,  K. Nanda,  
 T. S. Nguyen-Beck,  R. Olivares-Amaya,  J. A. Parkhill,  T. M. Perrine,  
 F. Plasser,  S. Prager,  A. Prociuk,  E. Ramos,  D. R. Rehn,  F. Rob,  
 M. Schneider,  N. Sergueev,  S. M. Sharada,  S. Sharma,  D. W. Small,  
 T. Stauch,  T. Stein,  Yu-Chuan Su,  A. J. W. Thom,  A. Tkatchenko,  
 T. Tsuchimochi,  L. Vogt,  O. Vydrov,  M. A. Watson,  J. Wenzel,  
 M. de Wergifosse,  T. A. Wesolowski,  A. White,  J. Witte,  A. Yamada,  
 Jun Yang,  K. Yao,  S. Yeganeh,  S. R. Yost,  Zhi-Qiang You,  A. Zech,  
 Igor Ying Zhang,  Xing Zhang,  Yan Zhao,  Ying Zhu,  B. R. Brooks,  
 G. K. L. Chan,  C. J. Cramer,  M. S. Gordon,  W. J. Hehre,  A. Klamt,  
 M. W. Schmidt,  C. D. Sherrill,  D. G. Truhlar,  A. Aspuru-Guzik,  R. Baer,  
 A. T. Bell,  N. A. Besley,  Jeng-Da Chai,  R. A. DiStasio Jr.,  A. Dreuw,  
 B. D. Dunietz,  T. R. Furlani,  Chao-Ping Hsu,  Yousung Jung,  Jing Kong,  
 D. S. Lambrecht,  WanZhen Liang,  C. Ochsenfeld,  V. A. Rassolov,  
 L. V. Slipchenko,  J. E. Subotnik,  T. Van Voorhis,  J. M. Herbert,  
 A. I. Krylov,  P. M. W. Gill,  M. Head-Gordon

 Contributors to earlier versions of Q-Chem not listed above: 
 R. D. Adamson,  B. Austin,  J. Baker,  G. J. O. Beran,  K. Brandhorst,  
 S. T. Brown,  E. F. C. Byrd,  A. K. Chakraborty,  C.-L. Cheng,  
 Siu Hung Chien,  D. M. Chipman,  D. L. Crittenden,  H. Dachsel,  
 R. J. Doerksen,  A. D. Dutoi,  L. Fusti-Molnar,  W. A. Goddard III,  
 A. Golubeva-Zadorozhnaya,  S. R. Gwaltney,  G. Hawkins,  A. Heyden,  
 S. Hirata,  G. Kedziora,  F. J. Keil,  C. Kelley,  Jihan Kim,  R. A. King,  
 R. Z. Khaliullin,  P. P. Korambath,  W. Kurlancheek,  A. M. Lee,  M. S. Lee,  
 S. V. Levchenko,  Ching Yeh Lin,  D. Liotard,  R. C. Lochan,  I. Lotan,  
 P. E. Maslen,  N. Nair,  D. P. O'Neill,  D. Neuhauser,  E. Neuscamman,  
 C. M. Oana,  R. Olson,  B. Peters,  R. Peverati,  P. A. Pieniazek,  
 Y. M. Rhee,  J. Ritchie,  M. A. Rohrdanz,  E. Rosta,  N. J. Russ,  
 H. F. Schaefer III,  N. E. Schultz,  N. Shenvi,  A. C. Simmonett,  A. Sodt,  
 D. Stuck,  K. S. Thanthiriwatte,  V. Vanovschi,  Tao Wang,  A. Warshel,  
 C. F. Williams,  Q. Wu,  X. Xu,  W. Zhang

 Please cite Q-Chem as follows:
 Y. Shao et al., Mol. Phys. 113, 184-215 (2015)
 DOI: 10.1080/00268976.2014.952696

 Q-Chem 5.0.2 for Intel X86 EM64T Linux

 Parts of Q-Chem use Armadillo 5.200.1 (Boston Tea Smuggler).
 http://arma.sourceforge.net/

 Q-Chem begins on Thu Feb  1 11:53:36 2018  


Host: 0

     Scratch files written to /home/jcartus/scratch/05_fluoromethane-methane_mono2.dir//
 Using version located at /usr/local/qchem/bin/qchem

 Parallel job on  1  processors

Total Memory Limit in MB = 2000
Mega-Array Size in MB = 192

Checking the input file for inconsistencies... 	...done.
Finally everything over in PARseQInput

--------------------------------------------------------------
User input:
--------------------------------------------------------------
$rem
SCF_PRINT                     1
BASIS                         6-311++g**
SCF_SAVE_MATRICES             1
SCF_CONVERGENCE               5
SCF_FINAL_PRINT               1
METHOD                        hf
JOBTYPE                       sp
$end

$molecule
0 1
C    0.017128682    -0.009767481    -1.680303942
H    -0.063241616    0.035668447    -2.761803854
H    -0.841686927    -0.534736175    -1.274267671
H    0.927869926    -0.535377764    -1.409431408
H    0.042730234    0.99699675    -1.275640625
$end


--------------------------------------------------------------
 ----------------------------------------------------------------
             Standard Nuclear Orientation (Angstroms)
    I     Atom           X                Y                Z
 ----------------------------------------------------------------
    1      C       0.0002841308    -0.0001625884     0.0000014017
    2      H       0.4788997829     0.9740514106    -0.0000967870
    3      H      -0.6220097996    -0.0989135036    -0.8837521581
    4      H       0.7615263170    -0.7744989207    -0.0011348788
    5      H      -0.6201210850    -0.0996634556     0.8849754138
 ----------------------------------------------------------------
 Molecular Point Group                 C1    NOp =  1
 Largest Abelian Subgroup              C1    NOp =  1
 Nuclear Repulsion Energy =    13.4910677274 hartrees
 There are        5 alpha and        5 beta electrons
 Requested basis set is 6-311++G(d,p)
 There are 26 shells and 50 basis functions

 Total QAlloc Memory Limit   2000 MB
 Mega-Array Size       188 MB
 MEM_STATIC part       192 MB

finished with qalloc call

                       Distance Matrix (Angstroms)
             C (  1)   H (  2)   H (  3)   H (  4)
   H (  2)  1.085433
   H (  3)  1.085367  1.773162
   H (  4)  1.085858  1.771245  1.774712
   H (  5)  1.085349  1.773151  1.768729  1.774695

 Job number = 2, Threshold = 1.00E-08
Integral type ranges set in mkLRange.C for JobNum: 2  <1-21|1-21>
Symmetry turned off temporarily
 Using the largest function pair in Schwarz integrals
Total number of integrals generated =           13035
Symmetry turned back on
 A cutoff of  1.0D-08 yielded    351 shell pairs
 There are      1321 function pairs (      1377 Cartesian)
 Job number = 11, Threshold = 1.00E-08
Integral type ranges set in mkLRange.C for JobNum: 11  <1-21|22-22>
Total number of integrals generated =            6885
 Smallest overlap matrix eigenvalue = 1.33E-03
 Multipole matrices computed through 2nd order

 Scale SEOQF with 1.000000e-01/1.000000e-01/1.000000e-01

 Standard Electronic Orientation quadrupole field applied
 ENuRep (before)= 13.491068
 ENucField = 0.000000
 ENuRep (after) = 13.491068
 Guess from superposition of atomic densities
 Warning:  Energy on first SCF cycle will be non-variational
 SAD guess density has 10.000000 electrons

 ==================================================
    GEN_SCFMAN: A general SCF calculation manager  
                                                   
    Authors:                                       
        -- Eric Jon Sundstrom 2008-2014            
        -- Paul Horn 2010-2015                     
        -- Yuezhi Mao 2012-                        
        -- Dmitri Zuev 2014                        
        -- Alec White 2015-                        
        -- David Stuck 2015                        
        -- Shaama M.S. 2015                        
        -- Shane Yost 2015-                         
        -- Joonho Lee 2016-                        
        -- David Small 2016-                       
        -- Daniel Levine 2016-                     
        -- Susi Lehtola 2017-                      
        -- Hugh Burton 2017-                       
 ==================================================
 Hartree-Fock
Finding J and K together
 Job number = 22, Threshold = 1.00E-08
Integral type ranges set in mkLRange.C for JobNum: 22  <1-21|1-21>
 MakeJK  time:  CPU       0.20 s  wall       0.22 s
 HF Exchange:               -6.48699262476485
 One-Electron:             -78.39727968356195
 Total Coulomb:             31.13982609521647
 Nuclear repulsion:         13.49106772745057
 A restricted SCF calculation will be
 performed using DIIS
 SCF converges when DIIS error is below 1.0e-05
 ---------------------------------------
  Cycle       Energy         DIIS error
 ---------------------------------------
Finding J and K together
 Job number = 22, Threshold = 1.00E-08
Integral type ranges set in mkLRange.C for JobNum: 22  <1-21|1-21>
 MakeJK  time:  CPU       0.33 s  wall       0.33 s
 HF Exchange:               -6.57979886144441
 One-Electron:             -80.03793357127283
 Total Coulomb:             32.92944589334700
 Nuclear repulsion:         13.49106772745057
    1     -40.2533784857      7.41e-02  
Finding J and K together
 Job number = 22, Threshold = 1.00E-08
Integral type ranges set in mkLRange.C for JobNum: 22  <1-21|1-21>
 MakeJK  time:  CPU       0.31 s  wall       0.32 s
 HF Exchange:               -6.56962541605832
 One-Electron:             -79.70668751403929
 Total Coulomb:             32.57722931489525
 Nuclear repulsion:         13.49106772745057
    2     -40.1972188119      5.58e-03  
Finding J and K together
 Job number = 22, Threshold = 1.00E-08
Integral type ranges set in mkLRange.C for JobNum: 22  <1-21|1-21>
 MakeJK  time:  CPU       0.20 s  wall       0.20 s
 HF Exchange:               -6.59556113828459
 One-Electron:             -79.86142273541222
 Total Coulomb:             32.75690672960311
 Nuclear repulsion:         13.49106772745057
    3     -40.2080158878      1.60e-03  
Finding J and K together
 Job number = 22, Threshold = 1.00E-08
Integral type ranges set in mkLRange.C for JobNum: 22  <1-21|1-21>
 MakeJK  time:  CPU       0.31 s  wall       0.31 s
 HF Exchange:               -6.59452629492991
 One-Electron:             -79.82316345250234
 Total Coulomb:             32.71748430737889
 Nuclear repulsion:         13.49106772745057
    4     -40.2090094166      5.24e-04  
Finding J and K together
 Job number = 22, Threshold = 1.00E-08
Integral type ranges set in mkLRange.C for JobNum: 22  <1-21|1-21>
 MakeJK  time:  CPU       0.32 s  wall       0.32 s
 HF Exchange:               -6.59535437141957
 One-Electron:             -79.82464794360654
 Total Coulomb:             32.71979312328698
 Nuclear repulsion:         13.49106772745057
    5     -40.2091377126      6.93e-05  
    6     -40.2091414643      6.65e-06  Convergence criterion met
 ---------------------------------------
 SCF time:   CPU 1.71s  wall 1.00s 
 Total energy in the final basis set =      -40.2091414643
 HF Exchange:               -6.59535437141957
 One-Electron:             -79.82464794360654
 Total Coulomb:             32.71979312328698
 Nuclear repulsion:         13.49106772745057
Wall  1 = 1
Clock 1 = 1.72356998920441
 ==================================================
                  Done GEN_SCFMAN                  
 ==================================================

Symmetry turned off temporarily

 --------------------------------------------------------------

                    Orbital Energies (a.u.)
 --------------------------------------------------------------

 Alpha MOs
 -- Occupied --
-11.206  -0.945  -0.547  -0.545  -0.545
 -- Virtual --
  0.042   0.078   0.078   0.078   0.153   0.153   0.153   0.189
  0.309   0.309   0.310   0.382   0.551   0.551   0.552   0.866
  0.876   0.876   0.876   1.037   1.202   1.203   1.726   1.727
  1.728   1.808   1.808   1.808   2.206   2.207   2.208   2.627
  2.630   2.693   2.795   2.800   2.800   2.939   2.941   2.942
  3.270   4.210   4.210   4.220  25.214
 --------------------------------------------------------------

          Ground-State Mulliken Net Atomic Charges

     Atom                 Charge (a.u.)
  ----------------------------------------
      1 C                    -0.468522
      2 H                     0.117144
      3 H                     0.117161
      4 H                     0.117053
      5 H                     0.117164
  ----------------------------------------
  Sum of atomic charges =    -0.000000

 -----------------------------------------------------------------
                    Cartesian Multipole Moments
 -----------------------------------------------------------------
    Charge (ESU x 10^10)
                -0.0000
    Dipole Moment (Debye)
         X      -0.0013      Y       0.0009      Z       0.0000
       Tot       0.0016
    Quadrupole Moments (Debye-Ang)
        XX      -8.4063     XY       0.0003     YY      -8.4262
        XZ      -0.0000     YZ      -0.0000     ZZ      -8.4326
    Octopole Moments (Debye-Ang^2)
       XXX       0.0464    XXY      -0.2094    XYY       0.6212
       YYY       0.3183    XXZ      -0.0016    XYZ       0.0007
       YYZ      -0.0004    XZZ      -0.6721    YZZ      -0.1058
       ZZZ       0.0021
    Hexadecapole Moments (Debye-Ang^3)
      XXXX     -16.5011   XXXY      -0.2270   XXYY      -5.0778
      XYYY       0.1108   YYYY     -15.7799   XXXZ       0.0013
      XXYZ       0.0005   XYYZ      -0.0008   YYYZ       0.0005
      XXZZ      -5.0387   XYZZ       0.1175   YYZZ      -5.7493
      XZZZ      -0.0006   YZZZ      -0.0010   ZZZZ     -15.8146
 -----------------------------------------------------------------
 Mayer SCF Bond Order, atomic valence on the diagonal:

            1           2           3           4           5
    1   3.8988394   0.9746896   0.9746420   0.9748693   0.9746385
    2   0.9746896   0.9266354  -0.0159968  -0.0160606  -0.0159968
    3   0.9746420  -0.0159968   0.9265460  -0.0159343  -0.0161648
    4   0.9748693  -0.0160606  -0.0159343   0.9269399  -0.0159344
    5   0.9746385  -0.0159968  -0.0161648  -0.0159344   0.9265425


 JobOver = TRUE
Archival summary:
1\1\qciep03\SP\HF\BasisUnspecified\14\jcartus\ThuFeb111:53:372018ThuFeb111:53:372018\0\\#,HF,BasisUnspecified,\\0,1\C\H,1,1.08535\H,1,1.08537,2,109.138\H,1,1.08543,2,109.537,3,119.916,0\H,1,1.08586,2,109.646,3,-120.117,0\\HF=-40.2091415\\@

 Total job time:  1.91s(wall), 1.84s(cpu) 
 Thu Feb  1 11:53:37 2018

        *************************************************************
        *                                                           *
        *  Thank you very much for using Q-Chem.  Have a nice day.  *
        *                                                           *
        *************************************************************


*** MISSION COMPLETED -- STARFLEET OUT ***

0 sent ACK to 0 
now end server 0 ... 
