Process 0 of 1 is on qciep03 - thread support 0
initial socket setup ...start
initial socket setup ...done 
now start server 0 ... 
qciep03.tugraz.at 127.0.1
Q-Chem Developer Version! Running on 127.0.1.*
                  Welcome to Q-Chem
     A Quantum Leap Into The Future Of Chemistry


 Q-Chem 5.0, Q-Chem, Inc., Pleasanton, CA (2017)

 Yihan Shao,  Zhengting Gan,  E. Epifanovsky,  A. T. B. Gilbert,  M. Wormit,  
 J. Kussmann,  A. W. Lange,  A. Behn,  Jia Deng,  Xintian Feng,  D. Ghosh,  
 M. Goldey,  P. R. Horn,  L. D. Jacobson,  I. Kaliman,  T. Kus,  A. Landau,  
 Jie Liu,  E. I. Proynov,  R. M. Richard,  R. P. Steele,  E. J. Sundstrom,  
 H. L. Woodcock III,  P. M. Zimmerman,  D. Zuev,  B. Albrecht,  E. Alguire,  
 S. A. Baeppler,  D. Barton,  Z. Benda,  Y. A. Bernard,  E. J. Berquist,  
 K. B. Bravaya,  H. Burton,  D. Casanova,  Chun-Min Chang,  Yunqing Chen,  
 A. Chien,  K. D. Closser,  M. P. Coons,  S. Dasgupta,  A. L. Dempwolff,  
 M. Diedenhofen,  Hainam Do,  R. G. Edgar,  Po-Tung Fang,  S. Fatehi,  
 Qingguo Feng,  J. Fosso-Tande,  Qinghui Ge,  A. Ghysels,  G. Gidofalvi,  
 J. Gomes,  J. Gonthier,  A. Gunina,  M. W. D. Hanson-Heine,  
 P. H. P. Harbach,  A. W. Hauser,  J. E. Herr,  E. G. Hohenstein,  
 Z. C. Holden,  Kerwin Hui,  T.-C. Jagau,  Hyunjun Ji,  B. Kaduk,  
 K. Khistyaev,  Jaehoon Kim,  P. Klunzinger,  K. Koh,  D. Kosenkov,  
 L. Koulias,  T. Kowalczyk,  C. M. Krauter,  A. Kunitsa,  Ka Un Lao,  
 A. Laurent,  K. V. Lawler,  Joonho Lee,  D. Lefrancois,  S. Lehtola,  
 D. S. Levine,  Yi-Pei Li,  You-Sheng Lin,  Fenglai Liu,  E. Livshits,  
 A. Luenser,  P. Manohar,  E. Mansoor,  S. F. Manzer,  Shan-Ping Mao,  
 Yuezhi Mao,  N. Mardirossian,  A. V. Marenich,  T. Markovich,  
 L. A. Martinez-Martinez,  S. A. Maurer,  N. J. Mayhall,  S. C. McKenzie,  
 J.-M. Mewes,  A. F. Morrison,  J. W. Mullinax,  K. Nanda,  
 T. S. Nguyen-Beck,  R. Olivares-Amaya,  J. A. Parkhill,  T. M. Perrine,  
 F. Plasser,  S. Prager,  A. Prociuk,  E. Ramos,  D. R. Rehn,  F. Rob,  
 M. Schneider,  N. Sergueev,  S. M. Sharada,  S. Sharma,  D. W. Small,  
 T. Stauch,  T. Stein,  Yu-Chuan Su,  A. J. W. Thom,  A. Tkatchenko,  
 T. Tsuchimochi,  L. Vogt,  O. Vydrov,  M. A. Watson,  J. Wenzel,  
 M. de Wergifosse,  T. A. Wesolowski,  A. White,  J. Witte,  A. Yamada,  
 Jun Yang,  K. Yao,  S. Yeganeh,  S. R. Yost,  Zhi-Qiang You,  A. Zech,  
 Igor Ying Zhang,  Xing Zhang,  Yan Zhao,  Ying Zhu,  B. R. Brooks,  
 G. K. L. Chan,  C. J. Cramer,  M. S. Gordon,  W. J. Hehre,  A. Klamt,  
 M. W. Schmidt,  C. D. Sherrill,  D. G. Truhlar,  A. Aspuru-Guzik,  R. Baer,  
 A. T. Bell,  N. A. Besley,  Jeng-Da Chai,  R. A. DiStasio Jr.,  A. Dreuw,  
 B. D. Dunietz,  T. R. Furlani,  Chao-Ping Hsu,  Yousung Jung,  Jing Kong,  
 D. S. Lambrecht,  WanZhen Liang,  C. Ochsenfeld,  V. A. Rassolov,  
 L. V. Slipchenko,  J. E. Subotnik,  T. Van Voorhis,  J. M. Herbert,  
 A. I. Krylov,  P. M. W. Gill,  M. Head-Gordon

 Contributors to earlier versions of Q-Chem not listed above: 
 R. D. Adamson,  B. Austin,  J. Baker,  G. J. O. Beran,  K. Brandhorst,  
 S. T. Brown,  E. F. C. Byrd,  A. K. Chakraborty,  C.-L. Cheng,  
 Siu Hung Chien,  D. M. Chipman,  D. L. Crittenden,  H. Dachsel,  
 R. J. Doerksen,  A. D. Dutoi,  L. Fusti-Molnar,  W. A. Goddard III,  
 A. Golubeva-Zadorozhnaya,  S. R. Gwaltney,  G. Hawkins,  A. Heyden,  
 S. Hirata,  G. Kedziora,  F. J. Keil,  C. Kelley,  Jihan Kim,  R. A. King,  
 R. Z. Khaliullin,  P. P. Korambath,  W. Kurlancheek,  A. M. Lee,  M. S. Lee,  
 S. V. Levchenko,  Ching Yeh Lin,  D. Liotard,  R. C. Lochan,  I. Lotan,  
 P. E. Maslen,  N. Nair,  D. P. O'Neill,  D. Neuhauser,  E. Neuscamman,  
 C. M. Oana,  R. Olson,  B. Peters,  R. Peverati,  P. A. Pieniazek,  
 Y. M. Rhee,  J. Ritchie,  M. A. Rohrdanz,  E. Rosta,  N. J. Russ,  
 H. F. Schaefer III,  N. E. Schultz,  N. Shenvi,  A. C. Simmonett,  A. Sodt,  
 D. Stuck,  K. S. Thanthiriwatte,  V. Vanovschi,  Tao Wang,  A. Warshel,  
 C. F. Williams,  Q. Wu,  X. Xu,  W. Zhang

 Please cite Q-Chem as follows:
 Y. Shao et al., Mol. Phys. 113, 184-215 (2015)
 DOI: 10.1080/00268976.2014.952696

 Q-Chem 5.0.2 for Intel X86 EM64T Linux

 Parts of Q-Chem use Armadillo 5.200.1 (Boston Tea Smuggler).
 http://arma.sourceforge.net/

 Q-Chem begins on Thu Jan 25 17:52:43 2018  


Host: 0

     Scratch files written to /home/jcartus/scratch/Ammonia-dimer.dir//
 Using version located at /usr/local/qchem/bin/qchem

 Parallel job on  1  processors

Total Memory Limit in MB = 2000
Mega-Array Size in MB = 192

Checking the input file for inconsistencies... 	...done.
Finally everything over in PARseQInput

--------------------------------------------------------------
User input:
--------------------------------------------------------------
$rem
SCF_PRINT                     1
BASIS                         6-311++g**
SCF_SAVE_MATRICES             1
SCF_CONVERGENCE               5
SCF_FINAL_PRINT               1
METHOD                        hf
JOBTYPE                       sp
$end

$molecule
0 1
N    -1.578718    -0.046611    0.0
H    -2.158621    0.136396    -0.809565
H    -2.158621    0.136396    0.809565
H    -0.849471    0.658193    0.0
N    1.578718    0.046611    0.0
H    2.158621    -0.136396    -0.809565
H    0.849471    -0.658193    0.0
H    2.158621    -0.136396    0.809565
$end


--------------------------------------------------------------
 I,J,IOp=           1           5           2  D=   3.6551355271786681E-016 Fix sym
 I, IOp=           1           4  D=   3.6551355271786681E-016 Fix sym
 I,J,IOp=           2           6           2  D=   3.2272943992214551E-015 Fix sym
 I,J,IOp=           2           8           3  D=   0.0000000000000000      Fix sym
 I,J,IOp=           2           3           4  D=   3.2272943992214551E-015 Fix sym
 I,J,IOp=           4           7           2  D=   2.6645352591003757E-015 Fix sym
 I, IOp=           4           4  D=   2.6645352591003757E-015 Fix sym
 ----------------------------------------------------------------
             Standard Nuclear Orientation (Angstroms)
    I     Atom           X                Y                Z
 ----------------------------------------------------------------
    1      N       1.5771934426     0.0835700510    -0.0000000000
    2      H       2.1612232205    -0.0858060687    -0.8095650000
    3      H       2.1612232205    -0.0858060687     0.8095650000
    4      H       0.8646521783    -0.6381188100     0.0000000000
    5      N      -1.5771934426    -0.0835700510     0.0000000000
    6      H      -2.1612232205     0.0858060687    -0.8095650000
    7      H      -0.8646521783     0.6381188100    -0.0000000000
    8      H      -2.1612232205     0.0858060687     0.8095650000
 ----------------------------------------------------------------
 Molecular Point Group                 C2h   NOp =  4
 Largest Abelian Subgroup              C2h   NOp =  4
 Nuclear Repulsion Energy =    40.3142400074 hartrees
 There are       10 alpha and       10 beta electrons
 Requested basis set is 6-311++G(d,p)
 There are 42 shells and 86 basis functions

 Total QAlloc Memory Limit   2000 MB
 Mega-Array Size       188 MB
 MEM_STATIC part       192 MB

finished with qalloc call

                       Distance Matrix (Angstroms)
             N (  1)   H (  2)   H (  3)   H (  4)   N (  5)   H (  6)
   H (  2)  1.012509
   H (  3)  1.012509  1.619130
   H (  4)  1.014174  1.625282  1.625282
   N (  5)  3.158812  3.825070  3.825070  2.504024
   H (  6)  3.825070  4.325852  4.618937  3.214869  1.012509
   H (  7)  2.504024  3.214869  3.214869  2.149250  1.014174  1.625282
   H (  8)  3.825070  4.618937  4.325852  3.214869  1.012509  1.619130
             H (  7)
   H (  8)  1.625282

 Job number = 2, Threshold = 1.00E-08
Integral type ranges set in mkLRange.C for JobNum: 2  <1-21|1-21>
Symmetry turned off temporarily
 Using the largest function pair in Schwarz integrals
Total number of integrals generated =           37021
Symmetry turned back on
 A cutoff of  1.0D-08 yielded    827 shell pairs
 There are      3430 function pairs (      3589 Cartesian)
 Job number = 11, Threshold = 1.00E-08
Integral type ranges set in mkLRange.C for JobNum: 11  <1-21|22-22>
Total number of integrals generated =           11280
 Smallest overlap matrix eigenvalue = 1.42E-03
 Multipole matrices computed through 2nd order

 Scale SEOQF with 1.000000e-01/1.000000e-01/1.000000e-01

 Standard Electronic Orientation quadrupole field applied
 Nucleus-field energy     =     0.0000000018 hartrees
 ENuRep (before)= 40.3142400074
 ENucField = 0.0000000018
 ENuRep (after) = 40.3142400092
 Guess from superposition of atomic densities
 Warning:  Energy on first SCF cycle will be non-variational
 SAD guess density has 20.000000 electrons

 ==================================================
    GEN_SCFMAN: A general SCF calculation manager  
                                                   
    Authors:                                       
        -- Eric Jon Sundstrom 2008-2014            
        -- Paul Horn 2010-2015                     
        -- Yuezhi Mao 2012-                        
        -- Dmitri Zuev 2014                        
        -- Alec White 2015-                        
        -- David Stuck 2015                        
        -- Shaama M.S. 2015                        
        -- Shane Yost 2015-                         
        -- Joonho Lee 2016-                        
        -- David Small 2016-                       
        -- Daniel Levine 2016-                     
        -- Susi Lehtola 2017-                      
        -- Hugh Burton 2017-                       
 ==================================================
 Hartree-Fock
Finding J and K together
 Job number = 22, Threshold = 1.00E-08
Integral type ranges set in mkLRange.C for JobNum: 22  <1-21|1-21>
 MakeJK  time:  CPU       0.25 s  wall       0.28 s
 HF Exchange:              -14.99315547809251
 One-Electron:             -229.53995303679764
 Total Coulomb:             91.79843778976934
 Nuclear repulsion:         40.31424000918199
 A restricted SCF calculation will be
 performed using DIIS
 SCF converges when DIIS error is below 1.0e-05
 ---------------------------------------
  Cycle       Energy         DIIS error
 ---------------------------------------
Finding J and K together
 Job number = 22, Threshold = 1.00E-08
Integral type ranges set in mkLRange.C for JobNum: 22  <1-21|1-21>
 MakeJK  time:  CPU       0.34 s  wall       0.35 s
 HF Exchange:              -15.42417736559050
 One-Electron:             -233.19490982509444
 Total Coulomb:             95.91484781117516
 Nuclear repulsion:         40.31424000918199
    1    -112.4204307159      6.31e-02  
Finding J and K together
 Job number = 22, Threshold = 1.00E-08
Integral type ranges set in mkLRange.C for JobNum: 22  <1-21|1-21>
 MakeJK  time:  CPU       0.32 s  wall       0.32 s
 HF Exchange:              -15.23630970339554
 One-Electron:             -231.37563045825246
 Total Coulomb:             93.87330596489541
 Nuclear repulsion:         40.31424000918199
    2    -112.3899993703      6.78e-03  
Finding J and K together
 Job number = 22, Threshold = 1.00E-08
Integral type ranges set in mkLRange.C for JobNum: 22  <1-21|1-21>
 MakeJK  time:  CPU       0.34 s  wall       0.33 s
 HF Exchange:              -15.34490353696261
 One-Electron:             -232.19828646580154
 Total Coulomb:             94.79772898459764
 Nuclear repulsion:         40.31424000918199
    3    -112.4243941876      3.07e-03  
Finding J and K together
 Job number = 22, Threshold = 1.00E-08
Integral type ranges set in mkLRange.C for JobNum: 22  <1-21|1-21>
 MakeJK  time:  CPU       0.42 s  wall       0.42 s
 HF Exchange:              -15.33657909682950
 One-Electron:             -232.09572036818832
 Total Coulomb:             94.68643832699172
 Nuclear repulsion:         40.31424000918199
    4    -112.4312210090      5.69e-04  
Finding J and K together
 Job number = 22, Threshold = 1.00E-08
Integral type ranges set in mkLRange.C for JobNum: 22  <1-21|1-21>
 MakeJK  time:  CPU       0.53 s  wall       0.53 s
 HF Exchange:              -15.33903224559370
 One-Electron:             -232.10550736396675
 Total Coulomb:             94.69865383868803
 Nuclear repulsion:         40.31424000918199
    5    -112.4316211288      1.10e-04  
Finding J and K together
 Job number = 22, Threshold = 1.00E-08
Integral type ranges set in mkLRange.C for JobNum: 22  <1-21|1-21>
 MakeJK  time:  CPU       0.44 s  wall       0.45 s
 HF Exchange:              -15.33917374848262
 One-Electron:             -232.10586345238102
 Total Coulomb:             94.69914979163860
 Nuclear repulsion:         40.31424000918199
    6    -112.4316457617      2.25e-05  
    7    -112.4316474000      5.70e-06  Convergence criterion met
 ---------------------------------------
 SCF time:   CPU 2.78s  wall 3.00s 
 Total energy in the final basis set =     -112.4316474000
 HF Exchange:              -15.33917374848262
 One-Electron:             -232.10586345238102
 Total Coulomb:             94.69914979163860
 Nuclear repulsion:         40.31424000918199
Wall  1 = 3
Clock 1 = 2.80956196784973
 ==================================================
                  Done GEN_SCFMAN                  
 ==================================================

Symmetry turned off temporarily

 --------------------------------------------------------------
             Orbital Energies (a.u.) and Symmetries
 --------------------------------------------------------------

 Alpha MOs, Restricted
 -- Occupied --                  
-15.535 -15.535  -1.142  -1.134  -0.642  -0.625  -0.623  -0.606
  1 Bu    1 Ag    2 Ag    2 Bu    3 Ag    1 Au    1 Bg    3 Bu                 
 -0.427  -0.423
  4 Bu    4 Ag                                                                 
 -- Virtual --                   
  0.043   0.060   0.069   0.088   0.093   0.104   0.197   0.210
  5 Ag    5 Bu    2 Au    2 Bg    6 Bu    6 Ag    7 Ag    3 Au                 
  0.216   0.228   0.244   0.250   0.280   0.292   0.311   0.325
  8 Ag    7 Bu    8 Bu    9 Ag    9 Bu    3 Bg    4 Au   10 Bu                 
  0.334   0.337   0.347   0.422   0.653   0.668   0.679   0.690
 11 Bu    4 Bg   10 Ag   11 Ag   12 Bu    5 Au   12 Ag    5 Bg                 
  0.828   0.852   0.994   1.030   1.045   1.053   1.056   1.089
 13 Ag   13 Bu   14 Ag    6 Au    6 Bg   14 Bu   15 Ag   15 Bu                 
  1.229   1.300   1.348   1.361   1.365   1.511   1.798   1.813
 16 Bu   16 Ag   17 Ag    7 Au    7 Bg   17 Bu    8 Au    8 Bg                 
  1.819   1.840   1.902   1.952   1.969   2.057   2.226   2.227
 18 Ag   18 Bu   19 Bu    9 Bg    9 Au   19 Ag   20 Bu   10 Au                 
  2.245   2.260   2.624   2.681   2.770   2.785   2.843   2.861
 10 Bg   20 Ag   21 Bu   21 Ag   22 Ag   11 Au   11 Bg   22 Bu                 
  2.977   2.986   2.994   2.997   3.008   3.056   3.198   3.223
 23 Ag   23 Bu   24 Ag   12 Bg   12 Au   24 Bu   25 Ag   25 Bu                 
  3.488   3.489   3.507   3.548   4.561   4.592   5.216   5.224
 13 Au   26 Ag   13 Bg   26 Bu   27 Ag   27 Bu   28 Ag   14 Au                 
  5.224   5.256  37.060  37.072
 14 Bg   28 Bu   29 Ag   29 Bu                                                 

 Beta MOs, Restricted
 -- Occupied --                  
-15.535 -15.535  -1.142  -1.134  -0.642  -0.625  -0.623  -0.606
  1 Bu    1 Ag    2 Ag    2 Bu    3 Ag    1 Au    1 Bg    3 Bu                 
 -0.427  -0.423
  4 Bu    4 Ag                                                                 
 -- Virtual --                   
  0.043   0.060   0.069   0.088   0.093   0.104   0.197   0.210
  5 Ag    5 Bu    2 Au    2 Bg    6 Bu    6 Ag    7 Ag    3 Au                 
  0.216   0.228   0.244   0.250   0.280   0.292   0.311   0.325
  8 Ag    7 Bu    8 Bu    9 Ag    9 Bu    3 Bg    4 Au   10 Bu                 
  0.334   0.337   0.347   0.422   0.653   0.668   0.679   0.690
 11 Bu    4 Bg   10 Ag   11 Ag   12 Bu    5 Au   12 Ag    5 Bg                 
  0.828   0.852   0.994   1.030   1.045   1.053   1.056   1.089
 13 Ag   13 Bu   14 Ag    6 Au    6 Bg   14 Bu   15 Ag   15 Bu                 
  1.229   1.300   1.348   1.361   1.365   1.511   1.798   1.813
 16 Bu   16 Ag   17 Ag    7 Au    7 Bg   17 Bu    8 Au    8 Bg                 
  1.819   1.840   1.902   1.952   1.969   2.057   2.226   2.227
 18 Ag   18 Bu   19 Bu    9 Bg    9 Au   19 Ag   20 Bu   10 Au                 
  2.245   2.260   2.624   2.681   2.770   2.785   2.843   2.861
 10 Bg   20 Ag   21 Bu   21 Ag   22 Ag   11 Au   11 Bg   22 Bu                 
  2.977   2.986   2.994   2.997   3.008   3.056   3.198   3.223
 23 Ag   23 Bu   24 Ag   12 Bg   12 Au   24 Bu   25 Ag   25 Bu                 
  3.488   3.489   3.507   3.548   4.561   4.592   5.216   5.224
 13 Au   26 Ag   13 Bg   26 Bu   27 Ag   27 Bu   28 Ag   14 Au                 
  5.224   5.256  37.060  37.072
 14 Bg   28 Bu   29 Ag   29 Bu                                                 
 --------------------------------------------------------------

          Ground-State Mulliken Net Atomic Charges

     Atom                 Charge (a.u.)
  ----------------------------------------
      1 N                    -0.746748
      2 H                     0.229132
      3 H                     0.229132
      4 H                     0.288484
      5 N                    -0.746748
      6 H                     0.229132
      7 H                     0.288484
      8 H                     0.229132
  ----------------------------------------
  Sum of atomic charges =    -0.000000

 -----------------------------------------------------------------
                    Cartesian Multipole Moments
 -----------------------------------------------------------------
    Charge (ESU x 10^10)
                -0.0000
    Dipole Moment (Debye)
         X       0.0000      Y      -0.0000      Z      -0.0000
       Tot       0.0000
    Quadrupole Moments (Debye-Ang)
        XX      -9.3054     XY      -3.4926     YY     -17.5928
        XZ      -0.0000     YZ      -0.0000     ZZ     -12.4792
    Octopole Moments (Debye-Ang^2)
       XXX       0.0000    XXY      -0.0000    XYY      -0.0000
       YYY      -0.0000    XXZ      -0.0000    XYZ       0.0000
       YYZ      -0.0000    XZZ       0.0000    YZZ      -0.0000
       ZZZ      -0.0000
    Hexadecapole Moments (Debye-Ang^3)
      XXXX    -207.7900   XXXY      -4.8459   XXYY     -55.1380
      XYYY      -3.4148   YYYY     -24.2727   XXXZ       0.0000
      XXYZ       0.0000   XYYZ      -0.0000   YYYZ      -0.0000
      XXZZ     -31.4438   XYZZ      -1.6263   YYZZ      -8.0132
      XZZZ       0.0000   YZZZ      -0.0000   ZZZZ     -19.9119
 -----------------------------------------------------------------
 Mayer SCF Bond Order, atomic valence on the diagonal:

            1           2           3           4           5           6
    1   2.8387188   0.9559303   0.9559303   0.9293760   0.0226383   0.0003509
    2   0.9559303   0.9382636  -0.0075982  -0.0098944   0.0003509   0.0000755
    3   0.9559303  -0.0075982   0.9382636  -0.0098944   0.0003509   0.0000947
    4   0.9293760  -0.0098944  -0.0098944   0.8787802  -0.0258580  -0.0006952
    5   0.0226383   0.0003509   0.0003509  -0.0258580   2.8387188   0.9559303
    6   0.0003509   0.0000755   0.0000947  -0.0006952   0.9559303   0.9382636
    7  -0.0258580  -0.0006952  -0.0006952  -0.0035585   0.9293760  -0.0098944
    8   0.0003509   0.0000947   0.0000755  -0.0006952   0.9559303  -0.0075982
            7           8
    1  -0.0258580   0.0003509
    2  -0.0006952   0.0000947
    3  -0.0006952   0.0000755
    4  -0.0035585  -0.0006952
    5   0.9293760   0.9559303
    6  -0.0098944  -0.0075982
    7   0.8787802  -0.0098944
    8  -0.0098944   0.9382636


 JobOver = TRUE
Archival summary:
1\1\qciep03\SP\HF\BasisUnspecified\26\jcartus\ThuJan2517:52:462018ThuJan2517:52:462018\0\\#,HF,BasisUnspecified,\\0,1\N\H,1,1.01251\H,1,1.01251,2,106.177\H,1,1.01417,2,106.632,3,113.434,0\H,4,2.14925,1,98.207,2,123.439,0\N,5,1.01417,4,98.207,1,-180,0\H,6,1.01251,5,106.632,4,123.439,0\H,6,1.01251,5,106.632,4,-123.439,0\\HF=-112.431647\\@

 Total job time:  3.22s(wall), 3.02s(cpu) 
 Thu Jan 25 17:52:46 2018

        *************************************************************
        *                                                           *
        *  Thank you very much for using Q-Chem.  Have a nice day.  *
        *                                                           *
        *************************************************************


*** MISSION COMPLETED -- STARFLEET OUT ***

0 sent ACK to 0 
now end server 0 ... 
