Process 0 of 1 is on qciep03 - thread support 0
initial socket setup ...start
initial socket setup ...done 
now start server 0 ... 
qciep03.tugraz.at 127.0.1
Q-Chem Developer Version! Running on 127.0.1.*
                  Welcome to Q-Chem
     A Quantum Leap Into The Future Of Chemistry


 Q-Chem 5.0, Q-Chem, Inc., Pleasanton, CA (2017)

 Yihan Shao,  Zhengting Gan,  E. Epifanovsky,  A. T. B. Gilbert,  M. Wormit,  
 J. Kussmann,  A. W. Lange,  A. Behn,  Jia Deng,  Xintian Feng,  D. Ghosh,  
 M. Goldey,  P. R. Horn,  L. D. Jacobson,  I. Kaliman,  T. Kus,  A. Landau,  
 Jie Liu,  E. I. Proynov,  R. M. Richard,  R. P. Steele,  E. J. Sundstrom,  
 H. L. Woodcock III,  P. M. Zimmerman,  D. Zuev,  B. Albrecht,  E. Alguire,  
 S. A. Baeppler,  D. Barton,  Z. Benda,  Y. A. Bernard,  E. J. Berquist,  
 K. B. Bravaya,  H. Burton,  D. Casanova,  Chun-Min Chang,  Yunqing Chen,  
 A. Chien,  K. D. Closser,  M. P. Coons,  S. Dasgupta,  A. L. Dempwolff,  
 M. Diedenhofen,  Hainam Do,  R. G. Edgar,  Po-Tung Fang,  S. Fatehi,  
 Qingguo Feng,  J. Fosso-Tande,  Qinghui Ge,  A. Ghysels,  G. Gidofalvi,  
 J. Gomes,  J. Gonthier,  A. Gunina,  M. W. D. Hanson-Heine,  
 P. H. P. Harbach,  A. W. Hauser,  J. E. Herr,  E. G. Hohenstein,  
 Z. C. Holden,  Kerwin Hui,  T.-C. Jagau,  Hyunjun Ji,  B. Kaduk,  
 K. Khistyaev,  Jaehoon Kim,  P. Klunzinger,  K. Koh,  D. Kosenkov,  
 L. Koulias,  T. Kowalczyk,  C. M. Krauter,  A. Kunitsa,  Ka Un Lao,  
 A. Laurent,  K. V. Lawler,  Joonho Lee,  D. Lefrancois,  S. Lehtola,  
 D. S. Levine,  Yi-Pei Li,  You-Sheng Lin,  Fenglai Liu,  E. Livshits,  
 A. Luenser,  P. Manohar,  E. Mansoor,  S. F. Manzer,  Shan-Ping Mao,  
 Yuezhi Mao,  N. Mardirossian,  A. V. Marenich,  T. Markovich,  
 L. A. Martinez-Martinez,  S. A. Maurer,  N. J. Mayhall,  S. C. McKenzie,  
 J.-M. Mewes,  A. F. Morrison,  J. W. Mullinax,  K. Nanda,  
 T. S. Nguyen-Beck,  R. Olivares-Amaya,  J. A. Parkhill,  T. M. Perrine,  
 F. Plasser,  S. Prager,  A. Prociuk,  E. Ramos,  D. R. Rehn,  F. Rob,  
 M. Schneider,  N. Sergueev,  S. M. Sharada,  S. Sharma,  D. W. Small,  
 T. Stauch,  T. Stein,  Yu-Chuan Su,  A. J. W. Thom,  A. Tkatchenko,  
 T. Tsuchimochi,  L. Vogt,  O. Vydrov,  M. A. Watson,  J. Wenzel,  
 M. de Wergifosse,  T. A. Wesolowski,  A. White,  J. Witte,  A. Yamada,  
 Jun Yang,  K. Yao,  S. Yeganeh,  S. R. Yost,  Zhi-Qiang You,  A. Zech,  
 Igor Ying Zhang,  Xing Zhang,  Yan Zhao,  Ying Zhu,  B. R. Brooks,  
 G. K. L. Chan,  C. J. Cramer,  M. S. Gordon,  W. J. Hehre,  A. Klamt,  
 M. W. Schmidt,  C. D. Sherrill,  D. G. Truhlar,  A. Aspuru-Guzik,  R. Baer,  
 A. T. Bell,  N. A. Besley,  Jeng-Da Chai,  R. A. DiStasio Jr.,  A. Dreuw,  
 B. D. Dunietz,  T. R. Furlani,  Chao-Ping Hsu,  Yousung Jung,  Jing Kong,  
 D. S. Lambrecht,  WanZhen Liang,  C. Ochsenfeld,  V. A. Rassolov,  
 L. V. Slipchenko,  J. E. Subotnik,  T. Van Voorhis,  J. M. Herbert,  
 A. I. Krylov,  P. M. W. Gill,  M. Head-Gordon

 Contributors to earlier versions of Q-Chem not listed above: 
 R. D. Adamson,  B. Austin,  J. Baker,  G. J. O. Beran,  K. Brandhorst,  
 S. T. Brown,  E. F. C. Byrd,  A. K. Chakraborty,  C.-L. Cheng,  
 Siu Hung Chien,  D. M. Chipman,  D. L. Crittenden,  H. Dachsel,  
 R. J. Doerksen,  A. D. Dutoi,  L. Fusti-Molnar,  W. A. Goddard III,  
 A. Golubeva-Zadorozhnaya,  S. R. Gwaltney,  G. Hawkins,  A. Heyden,  
 S. Hirata,  G. Kedziora,  F. J. Keil,  C. Kelley,  Jihan Kim,  R. A. King,  
 R. Z. Khaliullin,  P. P. Korambath,  W. Kurlancheek,  A. M. Lee,  M. S. Lee,  
 S. V. Levchenko,  Ching Yeh Lin,  D. Liotard,  R. C. Lochan,  I. Lotan,  
 P. E. Maslen,  N. Nair,  D. P. O'Neill,  D. Neuhauser,  E. Neuscamman,  
 C. M. Oana,  R. Olson,  B. Peters,  R. Peverati,  P. A. Pieniazek,  
 Y. M. Rhee,  J. Ritchie,  M. A. Rohrdanz,  E. Rosta,  N. J. Russ,  
 H. F. Schaefer III,  N. E. Schultz,  N. Shenvi,  A. C. Simmonett,  A. Sodt,  
 D. Stuck,  K. S. Thanthiriwatte,  V. Vanovschi,  Tao Wang,  A. Warshel,  
 C. F. Williams,  Q. Wu,  X. Xu,  W. Zhang

 Please cite Q-Chem as follows:
 Y. Shao et al., Mol. Phys. 113, 184-215 (2015)
 DOI: 10.1080/00268976.2014.952696

 Q-Chem 5.0.2 for Intel X86 EM64T Linux

 Parts of Q-Chem use Armadillo 5.200.1 (Boston Tea Smuggler).
 http://arma.sourceforge.net/

 Q-Chem begins on Thu Feb  1 12:02:32 2018  


Host: 0

     Scratch files written to /home/jcartus/scratch/12_benF6-ben_mono2.dir//
 Using version located at /usr/local/qchem/bin/qchem

 Parallel job on  1  processors

Total Memory Limit in MB = 2000
Mega-Array Size in MB = 192

Checking the input file for inconsistencies... 	...done.
Finally everything over in PARseQInput

--------------------------------------------------------------
User input:
--------------------------------------------------------------
$rem
SCF_PRINT                     1
BASIS                         6-311++g**
SCF_SAVE_MATRICES             1
SCF_CONVERGENCE               5
SCF_FINAL_PRINT               1
METHOD                        hf
JOBTYPE                       sp
$end

$molecule
0 1
H    -1.719265622    -1.313070599    3.23511468
H    -2.117120419    1.131566386    3.250807086
C    0.409478083    -1.12597989    3.47677448
C    -0.887013607    -0.630037228    3.342089837
C    -1.111190459    0.746396788    3.352790675
C    -0.039417816    1.626442678    3.499615551
C    1.256371149    1.130100736    3.634840523
C    1.481108571    -0.245785431    3.623479226
H    -0.21365013    2.693766913    3.507370558
H    2.087582706    1.812593825    3.746420458
H    0.583630925    -2.193775854    3.470689289
H    2.486380394    -0.630785067    3.727095469
$end


--------------------------------------------------------------
 ----------------------------------------------------------------
             Standard Nuclear Orientation (Angstroms)
    I     Atom           X                Y                Z
 ----------------------------------------------------------------
    1      H       0.5377683318    -2.4175029764     0.0054462054
    2      H      -1.8248537025    -1.6740060070     0.0016966880
    3      C       1.3302024198    -0.4182627535    -0.0007909029
    4      C       0.3028223249    -1.3613851750    -0.0006570833
    5      C      -1.0274578435    -0.9427027352    -0.0008965281
    6      C      -1.3301631047     0.4185845820     0.0002330273
    7      C      -0.3027259606     1.3609660495     0.0007260528
    8      C       1.0272974411     0.9429514102     0.0002315381
    9      H      -2.3618921139     0.7428265472    -0.0004463792
   10      H      -0.5375288121     2.4164399802    -0.0006715611
   11      H       2.3623631849    -0.7425975362     0.0015684147
   12      H       1.8242914503     1.6739317248    -0.0006699907
 ----------------------------------------------------------------
 Molecular Point Group                 C1    NOp =  1
 Largest Abelian Subgroup              C1    NOp =  1
 Nuclear Repulsion Energy =   203.6074471567 hartrees
 There are       21 alpha and       21 beta electrons
 Requested basis set is 6-311++G(d,p)
 There are 66 shells and 174 basis functions

 Total QAlloc Memory Limit   2000 MB
 Mega-Array Size       188 MB
 MEM_STATIC part       192 MB

finished with qalloc call

                       Distance Matrix (Angstroms)
             H (  1)   H (  2)   C (  3)   C (  4)   C (  5)   C (  6)
   H (  2)  2.476850
   C (  3)  2.150570  3.395773
   C (  4)  1.081953  2.150521  1.394629
   C (  5)  2.150583  1.081966  2.415285  1.394611
   C (  6)  3.395966  2.150269  2.788881  2.415561  1.394538
   C (  7)  3.870824  3.395280  2.414977  2.788886  2.414980  1.394170
   C (  8)  3.395927  3.870818  1.394509  2.415540  2.788855  2.415074
   H (  9)  4.289026  2.475782  3.870361  3.395351  2.149820  1.081480
   H ( 10)  4.952101  4.288235  3.394696  3.870162  3.394683  2.149348
   H ( 11)  2.476786  4.289558  1.081922  2.150491  3.395723  3.870800
   H ( 12)  4.288941  4.952267  2.149745  3.395293  3.870304  3.395067
             C (  7)   C (  8)   H (  9)   H ( 10)   H ( 11)
   C (  8)  1.394166
   H (  9)  2.149945  3.395093
   H ( 10)  1.081277  2.149384  2.475739
   H ( 11)  3.395244  2.150227  4.952280  4.288228
   H ( 12)  2.149919  1.081449  4.288483  2.475785  2.475710

 Job number = 2, Threshold = 1.00E-08
Integral type ranges set in mkLRange.C for JobNum: 2  <1-21|1-21>
Symmetry turned off temporarily
 Using the largest function pair in Schwarz integrals
Total number of integrals generated =          233997
Symmetry turned back on
 A cutoff of  1.0D-08 yielded   2055 shell pairs
 There are     14694 function pairs (     15765 Cartesian)
 Job number = 11, Threshold = 1.00E-08
Integral type ranges set in mkLRange.C for JobNum: 11  <1-21|22-22>
Total number of integrals generated =          189180
 Smallest overlap matrix eigenvalue = 1.07E-06

 Q-Chem warning in module /usr/local/qchem/stvman/mkSTV.C, line 295:

 Overlap eigenvalue is smaller than square root of threshold

 Multipole matrices computed through 2nd order

 Scale SEOQF with 1.000000e-01/1.000000e-01/1.000000e-01

 Standard Electronic Orientation quadrupole field applied
 Nucleus-field energy     =     0.0000000057 hartrees
 ENuRep (before)= 203.6074471567
 ENucField = 0.0000000057
 ENuRep (after) = 203.6074471624
 Guess from superposition of atomic densities
 Warning:  Energy on first SCF cycle will be non-variational
 SAD guess density has 42.000000 electrons

 ==================================================
    GEN_SCFMAN: A general SCF calculation manager  
                                                   
    Authors:                                       
        -- Eric Jon Sundstrom 2008-2014            
        -- Paul Horn 2010-2015                     
        -- Yuezhi Mao 2012-                        
        -- Dmitri Zuev 2014                        
        -- Alec White 2015-                        
        -- David Stuck 2015                        
        -- Shaama M.S. 2015                        
        -- Shane Yost 2015-                         
        -- Joonho Lee 2016-                        
        -- David Small 2016-                       
        -- Daniel Levine 2016-                     
        -- Susi Lehtola 2017-                      
        -- Hugh Burton 2017-                       
 ==================================================
 Hartree-Fock
Finding J and K together
 Job number = 22, Threshold = 1.00E-08
Integral type ranges set in mkLRange.C for JobNum: 22  <1-21|1-21>
 MakeJK  time:  CPU       4.32 s  wall       4.92 s
 HF Exchange:              -34.14590423263709
 One-Electron:             -709.17765758212261
 Total Coulomb:            306.47082234169073
 Nuclear repulsion:        203.60744716242559
 A restricted SCF calculation will be
 performed using DIIS
 SCF converges when DIIS error is below 1.0e-05
 ---------------------------------------
  Cycle       Energy         DIIS error
 ---------------------------------------
Finding J and K together
 Job number = 22, Threshold = 1.00E-08
Integral type ranges set in mkLRange.C for JobNum: 22  <1-21|1-21>
 MakeJK  time:  CPU      16.54 s  wall      17.61 s
 HF Exchange:              -33.16462235832117
 One-Electron:             -713.97481103309985
 Total Coulomb:            312.83988683216756
 Nuclear repulsion:        203.60744716242559
    1    -233.2452923106      5.18e-02  
Finding J and K together
 Job number = 22, Threshold = 1.00E-08
Integral type ranges set in mkLRange.C for JobNum: 22  <1-21|1-21>
 MakeJK  time:  CPU      16.67 s  wall      17.32 s
 HF Exchange:              -33.20934780196063
 One-Electron:             -713.18806405574935
 Total Coulomb:            312.03864489437473
 Nuclear repulsion:        203.60744716242559
    2    -230.6920993968      3.32e-03  
Finding J and K together
 Job number = 22, Threshold = 1.00E-08
Integral type ranges set in mkLRange.C for JobNum: 22  <1-21|1-21>
 MakeJK  time:  CPU      16.16 s  wall      18.58 s
 HF Exchange:              -33.26445827903063
 One-Electron:             -713.83015877792343
 Total Coulomb:            312.73139958696299
 Nuclear repulsion:        203.60744716242559
    3    -230.7513198009      9.05e-04  
Finding J and K together
 Job number = 22, Threshold = 1.00E-08
Integral type ranges set in mkLRange.C for JobNum: 22  <1-21|1-21>
 MakeJK  time:  CPU      16.04 s  wall      19.47 s
 HF Exchange:              -33.25041026882367
 One-Electron:             -713.54057693999778
 Total Coulomb:            312.42727298453457
 Nuclear repulsion:        203.60744716242559
    4    -230.7557703076      3.47e-04  
Finding J and K together
 Job number = 22, Threshold = 1.00E-08
Integral type ranges set in mkLRange.C for JobNum: 22  <1-21|1-21>
 MakeJK  time:  CPU      16.38 s  wall      17.38 s
 HF Exchange:              -33.25146547120470
 One-Electron:             -713.55263598334125
 Total Coulomb:            312.44037658540890
 Nuclear repulsion:        203.60744716242559
    5    -230.7562670619      3.45e-05  
    6    -230.7562777067      6.42e-06  Convergence criterion met
 ---------------------------------------
 SCF time:   CPU 87.05s  wall 97.00s 
 Total energy in the final basis set =     -230.7562777067
 HF Exchange:              -33.25146547120470
 One-Electron:             -713.55263598334125
 Total Coulomb:            312.44037658540890
 Nuclear repulsion:        203.60744716242559
Wall  1 = 97
Clock 1 = 87.21841430664062
 ==================================================
                  Done GEN_SCFMAN                  
 ==================================================

Symmetry turned off temporarily

 --------------------------------------------------------------

                    Orbital Energies (a.u.)
 --------------------------------------------------------------

 Alpha MOs
 -- Occupied --
-11.239 -11.238 -11.238 -11.237 -11.237 -11.236  -1.152  -1.017
 -1.017  -0.826  -0.826  -0.711  -0.645  -0.621  -0.590  -0.590
 -0.502  -0.496  -0.496  -0.337  -0.337
 -- Virtual --
  0.042   0.049   0.049   0.066   0.066   0.088   0.109   0.109
  0.129   0.153   0.153   0.158   0.163   0.181   0.181   0.183
  0.183   0.193   0.209   0.212   0.212   0.216   0.216   0.218
  0.228   0.228   0.250   0.250   0.289   0.289   0.303   0.334
  0.335   0.369   0.409   0.409   0.430   0.430   0.441   0.498
  0.498   0.509   0.509   0.604   0.610   0.715   0.723   0.723
  0.728   0.751   0.751   0.751   0.758   0.758   0.797   0.820
  0.820   0.886   0.940   0.940   0.951   0.951   0.976   1.016
  1.016   1.017   1.059   1.059   1.106   1.122   1.122   1.130
  1.170   1.218   1.219   1.249   1.324   1.324   1.391   1.391
  1.524   1.557   1.711   1.786   1.786   1.796   1.826   1.845
  1.845   1.908   1.908   1.933   1.933   1.992   2.056   2.056
  2.104   2.104   2.131   2.236   2.237   2.240   2.248   2.248
  2.298   2.347   2.347   2.379   2.379   2.640   2.662   2.743
  2.743   2.746   2.817   2.817   2.962   2.962   2.988   2.995
  3.022   3.022   3.045   3.045   3.058   3.089   3.192   3.192
  3.266   3.293   3.293   3.329   3.330   3.481   3.548   3.775
  3.776   3.907   3.907   3.921   4.080   4.410   4.410   4.500
  4.576   4.576   5.278  24.752  25.138  25.138  25.259  25.259
 25.370
 --------------------------------------------------------------

          Ground-State Mulliken Net Atomic Charges

     Atom                 Charge (a.u.)
  ----------------------------------------
      1 H                     0.192811
      2 H                     0.192776
      3 C                    -0.191698
      4 C                    -0.193971
      5 C                    -0.191716
      6 C                    -0.193492
      7 C                    -0.191888
      8 C                    -0.193497
      9 H                     0.192676
     10 H                     0.192565
     11 H                     0.192765
     12 H                     0.192670
  ----------------------------------------
  Sum of atomic charges =    -0.000000

 -----------------------------------------------------------------
                    Cartesian Multipole Moments
 -----------------------------------------------------------------
    Charge (ESU x 10^10)
                -0.0000
    Dipole Moment (Debye)
         X      -0.0002      Y       0.0010      Z       0.0060
       Tot       0.0061
    Quadrupole Moments (Debye-Ang)
        XX     -31.9152     XY       0.0005     YY     -31.9188
        XZ       0.0045     YZ      -0.0246     ZZ     -41.3169
    Octopole Moments (Debye-Ang^2)
       XXX      -0.0034    XXY       0.0049    XYY       0.0027
       YYY      -0.0001    XXZ       0.0169    XYZ      -0.0054
       YYZ       0.0391    XZZ      -0.0012    YZZ       0.0067
       ZZZ       0.0111
    Hexadecapole Moments (Debye-Ang^3)
      XXXX    -270.5438   XXXY       0.0077   XXYY     -90.1907
      XYYY      -0.0026   YYYY    -270.5704   XXXZ       0.0251
      XXYZ      -0.0478   XYYZ       0.0146   YYYZ      -0.1675
      XXZZ     -66.1157   XYZZ      -0.0005   YYZZ     -66.1125
      XZZZ       0.0070   YZZZ      -0.0381   ZZZZ     -52.1858
 -----------------------------------------------------------------
 Mayer SCF Bond Order, atomic valence on the diagonal:

            1           2           3           4           5           6
    1   0.9408830   0.0108395   0.0913461   0.7782051   0.0913687  -0.0265683
    2   0.0108395   0.9407196  -0.0263426   0.0908553   0.7789570   0.0907131
    3   0.0913461  -0.0263426   4.4318366   1.8302205  -0.0975775   0.0482840
    4   0.7782051   0.0908553   1.8302205   4.4340753   1.8303502  -0.0957471
    5   0.0913687   0.7789570  -0.0975775   1.8303502   4.4318757   1.8294924
    6  -0.0265683   0.0907131   0.0482840  -0.0957471   1.8294924   4.4323884
    7   0.0102102  -0.0264021  -0.0975412   0.0480144  -0.0974632   1.8293487
    8  -0.0265644   0.0100635   1.8295214  -0.0956819   0.0481870  -0.0959909
    9   0.0006052   0.0108144   0.0101776  -0.0264756   0.0909918   0.7787445
   10  -0.0000005   0.0006107  -0.0263183   0.0100496  -0.0263108   0.0906021
   11   0.0108364   0.0006116   0.7790376   0.0907866  -0.0263131   0.0100499
   12   0.0006050  -0.0000006   0.0910292  -0.0265017   0.0101931  -0.0265397
            7           8           9          10          11          12
    1   0.0102102  -0.0265644   0.0006052  -0.0000005   0.0108364   0.0006050
    2  -0.0264021   0.0100635   0.0108144   0.0006107   0.0006116  -0.0000006
    3  -0.0975412   1.8295214   0.0101776  -0.0263183   0.7790376   0.0910292
    4   0.0480144  -0.0956819  -0.0264756   0.0100496   0.0907866  -0.0265017
    5  -0.0974632   0.0481870   0.0909918  -0.0263108  -0.0263131   0.0101931
    6   1.8293487  -0.0959909   0.7787445   0.0906021   0.0100499  -0.0265397
    7   4.4307331   1.8293189   0.0911186   0.7793358  -0.0263765   0.0911694
    8   1.8293189   4.4323234  -0.0265113   0.0906184   0.0906623   0.7787004
    9   0.0911186  -0.0265113   0.9408645   0.0107947  -0.0000011   0.0006057
   10   0.7793358   0.0906184   0.0107947   0.9407879   0.0006107   0.0107955
   11  -0.0263765   0.0906623  -0.0000011   0.0006107   0.9407172   0.0108127
   12   0.0911694   0.7787004   0.0006057   0.0107955   0.0108127   0.9408690


 JobOver = TRUE
Archival summary:
1\1\qciep03\SP\HF\BasisUnspecified\66\jcartus\ThuFeb112:04:092018ThuFeb112:04:092018\0\\#,HF,BasisUnspecified,\\0,1\C\H,1,1.08128\C,1,1.39417,2,119.989\H,3,1.08145,1,120.026,2,0.053813,0\C,1,1.39417,2,119.986,3,-179.868,0\H,5,1.08148,1,120.026,2,-0.0673307,0\C,3,1.39451,1,119.993,2,-179.866,0\H,7,1.08192,3,119.989,1,-179.832,0\C,5,1.39454,1,119.991,2,179.861,0\H,9,1.08197,5,119.987,1,179.818,0\C,9,1.39461,5,120.007,1,0.041552,0\H,11,1.08195,9,120.012,5,179.573,0\\HF=-230.756278\\@

 Total job time:  97.42s(wall), 87.84s(cpu) 
 Thu Feb  1 12:04:09 2018

        *************************************************************
        *                                                           *
        *  Thank you very much for using Q-Chem.  Have a nice day.  *
        *                                                           *
        *************************************************************


*** MISSION COMPLETED -- STARFLEET OUT ***

0 sent ACK to 0 
now end server 0 ... 
