Process 0 of 1 is on qciep03 - thread support 0
initial socket setup ...start
initial socket setup ...done 
now start server 0 ... 
qciep03.tugraz.at 127.0.1
Q-Chem Developer Version! Running on 127.0.1.*
                  Welcome to Q-Chem
     A Quantum Leap Into The Future Of Chemistry


 Q-Chem 5.0, Q-Chem, Inc., Pleasanton, CA (2017)

 Yihan Shao,  Zhengting Gan,  E. Epifanovsky,  A. T. B. Gilbert,  M. Wormit,  
 J. Kussmann,  A. W. Lange,  A. Behn,  Jia Deng,  Xintian Feng,  D. Ghosh,  
 M. Goldey,  P. R. Horn,  L. D. Jacobson,  I. Kaliman,  T. Kus,  A. Landau,  
 Jie Liu,  E. I. Proynov,  R. M. Richard,  R. P. Steele,  E. J. Sundstrom,  
 H. L. Woodcock III,  P. M. Zimmerman,  D. Zuev,  B. Albrecht,  E. Alguire,  
 S. A. Baeppler,  D. Barton,  Z. Benda,  Y. A. Bernard,  E. J. Berquist,  
 K. B. Bravaya,  H. Burton,  D. Casanova,  Chun-Min Chang,  Yunqing Chen,  
 A. Chien,  K. D. Closser,  M. P. Coons,  S. Dasgupta,  A. L. Dempwolff,  
 M. Diedenhofen,  Hainam Do,  R. G. Edgar,  Po-Tung Fang,  S. Fatehi,  
 Qingguo Feng,  J. Fosso-Tande,  Qinghui Ge,  A. Ghysels,  G. Gidofalvi,  
 J. Gomes,  J. Gonthier,  A. Gunina,  M. W. D. Hanson-Heine,  
 P. H. P. Harbach,  A. W. Hauser,  J. E. Herr,  E. G. Hohenstein,  
 Z. C. Holden,  Kerwin Hui,  T.-C. Jagau,  Hyunjun Ji,  B. Kaduk,  
 K. Khistyaev,  Jaehoon Kim,  P. Klunzinger,  K. Koh,  D. Kosenkov,  
 L. Koulias,  T. Kowalczyk,  C. M. Krauter,  A. Kunitsa,  Ka Un Lao,  
 A. Laurent,  K. V. Lawler,  Joonho Lee,  D. Lefrancois,  S. Lehtola,  
 D. S. Levine,  Yi-Pei Li,  You-Sheng Lin,  Fenglai Liu,  E. Livshits,  
 A. Luenser,  P. Manohar,  E. Mansoor,  S. F. Manzer,  Shan-Ping Mao,  
 Yuezhi Mao,  N. Mardirossian,  A. V. Marenich,  T. Markovich,  
 L. A. Martinez-Martinez,  S. A. Maurer,  N. J. Mayhall,  S. C. McKenzie,  
 J.-M. Mewes,  A. F. Morrison,  J. W. Mullinax,  K. Nanda,  
 T. S. Nguyen-Beck,  R. Olivares-Amaya,  J. A. Parkhill,  T. M. Perrine,  
 F. Plasser,  S. Prager,  A. Prociuk,  E. Ramos,  D. R. Rehn,  F. Rob,  
 M. Schneider,  N. Sergueev,  S. M. Sharada,  S. Sharma,  D. W. Small,  
 T. Stauch,  T. Stein,  Yu-Chuan Su,  A. J. W. Thom,  A. Tkatchenko,  
 T. Tsuchimochi,  L. Vogt,  O. Vydrov,  M. A. Watson,  J. Wenzel,  
 M. de Wergifosse,  T. A. Wesolowski,  A. White,  J. Witte,  A. Yamada,  
 Jun Yang,  K. Yao,  S. Yeganeh,  S. R. Yost,  Zhi-Qiang You,  A. Zech,  
 Igor Ying Zhang,  Xing Zhang,  Yan Zhao,  Ying Zhu,  B. R. Brooks,  
 G. K. L. Chan,  C. J. Cramer,  M. S. Gordon,  W. J. Hehre,  A. Klamt,  
 M. W. Schmidt,  C. D. Sherrill,  D. G. Truhlar,  A. Aspuru-Guzik,  R. Baer,  
 A. T. Bell,  N. A. Besley,  Jeng-Da Chai,  R. A. DiStasio Jr.,  A. Dreuw,  
 B. D. Dunietz,  T. R. Furlani,  Chao-Ping Hsu,  Yousung Jung,  Jing Kong,  
 D. S. Lambrecht,  WanZhen Liang,  C. Ochsenfeld,  V. A. Rassolov,  
 L. V. Slipchenko,  J. E. Subotnik,  T. Van Voorhis,  J. M. Herbert,  
 A. I. Krylov,  P. M. W. Gill,  M. Head-Gordon

 Contributors to earlier versions of Q-Chem not listed above: 
 R. D. Adamson,  B. Austin,  J. Baker,  G. J. O. Beran,  K. Brandhorst,  
 S. T. Brown,  E. F. C. Byrd,  A. K. Chakraborty,  C.-L. Cheng,  
 Siu Hung Chien,  D. M. Chipman,  D. L. Crittenden,  H. Dachsel,  
 R. J. Doerksen,  A. D. Dutoi,  L. Fusti-Molnar,  W. A. Goddard III,  
 A. Golubeva-Zadorozhnaya,  S. R. Gwaltney,  G. Hawkins,  A. Heyden,  
 S. Hirata,  G. Kedziora,  F. J. Keil,  C. Kelley,  Jihan Kim,  R. A. King,  
 R. Z. Khaliullin,  P. P. Korambath,  W. Kurlancheek,  A. M. Lee,  M. S. Lee,  
 S. V. Levchenko,  Ching Yeh Lin,  D. Liotard,  R. C. Lochan,  I. Lotan,  
 P. E. Maslen,  N. Nair,  D. P. O'Neill,  D. Neuhauser,  E. Neuscamman,  
 C. M. Oana,  R. Olson,  B. Peters,  R. Peverati,  P. A. Pieniazek,  
 Y. M. Rhee,  J. Ritchie,  M. A. Rohrdanz,  E. Rosta,  N. J. Russ,  
 H. F. Schaefer III,  N. E. Schultz,  N. Shenvi,  A. C. Simmonett,  A. Sodt,  
 D. Stuck,  K. S. Thanthiriwatte,  V. Vanovschi,  Tao Wang,  A. Warshel,  
 C. F. Williams,  Q. Wu,  X. Xu,  W. Zhang

 Please cite Q-Chem as follows:
 Y. Shao et al., Mol. Phys. 113, 184-215 (2015)
 DOI: 10.1080/00268976.2014.952696

 Q-Chem 5.0.2 for Intel X86 EM64T Linux

 Parts of Q-Chem use Armadillo 5.200.1 (Boston Tea Smuggler).
 http://arma.sourceforge.net/

 Q-Chem begins on Thu Jan 25 17:27:47 2018  


Host: 0

     Scratch files written to /home/jcartus/scratch/Uracil-dimer-stack.dir//
 Using version located at /usr/local/qchem/bin/qchem

 Parallel job on  1  processors

Total Memory Limit in MB = 2000
Mega-Array Size in MB = 192

Checking the input file for inconsistencies... 	...done.
Finally everything over in PARseQInput

--------------------------------------------------------------
User input:
--------------------------------------------------------------
$rem
SCF_PRINT                     1
BASIS                         6-311++g**
SCF_SAVE_MATRICES             1
SCF_CONVERGENCE               5
SCF_FINAL_PRINT               1
METHOD                        hf
JOBTYPE                       sp
$end

$molecule
0 1
N    2.0113587    -1.2132073    -0.0980673
C    2.0257076    -0.6971797    -1.3644029
H    2.2975208    -1.3910592    -2.1456459
C    1.7145226    0.5919651    -1.6124892
H    1.7272873    0.9908466    -2.612005
C    1.3089605    1.457534    -0.520589
O    0.9205926    2.6110864    -0.6260457
N    1.3768885    0.8397454    0.7346356
H    1.051804    1.3862229    1.523371
C    1.6459909    -0.4852113    1.0187267
O    1.561109    -0.9718061    2.1298059
H    2.1294635    -2.2015046    0.0568134
N    -2.0113587    1.2132073    -0.0980673
C    -2.0257076    0.6971797    -1.3644029
H    -2.2975208    1.3910592    -2.1456459
C    -1.7145226    -0.5919651    -1.6124892
H    -1.7272873    -0.9908466    -2.612005
C    -1.3089605    -1.457534    -0.520589
O    -0.9205926    -2.6110864    -0.6260457
N    -1.3768885    -0.8397454    0.7346356
H    -1.051804    -1.3862229    1.523371
C    -1.6459909    0.4852113    1.0187267
O    -1.561109    0.9718061    2.1298059
H    -2.1294635    2.2015046    0.0568134
$end


--------------------------------------------------------------
 I,J,IOp=           1          13           2  D=   1.5100665727558131E-015 Fix sym
 I,J,IOp=           2          14           2  D=   2.5894628196555750E-015 Fix sym
 I,J,IOp=           3          15           2  D=   3.6620534388177900E-015 Fix sym
 I,J,IOp=           4          16           2  D=   2.6645352591003757E-015 Fix sym
 I,J,IOp=           5          17           2  D=   3.6620534388177900E-015 Fix sym
 I,J,IOp=           6          18           2  D=   2.1556631856153973E-015 Fix sym
 I,J,IOp=           7          19           2  D=   3.2177320244274195E-015 Fix sym
 I,J,IOp=           8          20           2  D=   1.9357399876532506E-015 Fix sym
 I,J,IOp=           9          21           2  D=   2.3075552236602768E-015 Fix sym
 I,J,IOp=          10          22           2  D=   2.2752801345137459E-015 Fix sym
 I,J,IOp=          11          23           2  D=   3.2023728339893768E-015 Fix sym
 I,J,IOp=          12          24           2  D=   1.0934428697813141E-015 Fix sym
 ----------------------------------------------------------------
             Standard Nuclear Orientation (Angstroms)
    I     Atom           X                Y                Z
 ----------------------------------------------------------------
    1      N      -2.0722555537     1.1059804217    -0.0711029345
    2      C      -2.0595038150     0.5899108837    -1.3374385345
    3      H      -2.3673569001     1.2685696007    -2.1186815345
    4      C      -1.6810939642    -0.6811266470    -1.5855248345
    5      H      -1.6729079763    -1.0801283741    -2.5850406345
    6      C      -1.2306661124    -1.5242191022    -0.4936246345
    7      O      -0.7822955396    -2.6558005596    -0.5990813345
    8      N      -1.3309217392    -0.9108466405     0.7615999655
    9      H      -0.9776063438    -1.4395108264     1.5503353655
   10      C      -1.6691863701     0.3981619149     1.0456910655
   11      O      -1.6099576847     0.8885407472     2.1567702655
   12      H      -2.2420629449     2.0867177702     0.0837777655
   13      N       2.0722555537    -1.1059804217    -0.0711029345
   14      C       2.0595038150    -0.5899108837    -1.3374385345
   15      H       2.3673569001    -1.2685696007    -2.1186815345
   16      C       1.6810939642     0.6811266470    -1.5855248345
   17      H       1.6729079763     1.0801283741    -2.5850406345
   18      C       1.2306661124     1.5242191022    -0.4936246345
   19      O       0.7822955396     2.6558005596    -0.5990813345
   20      N       1.3309217392     0.9108466405     0.7615999655
   21      H       0.9776063438     1.4395108264     1.5503353655
   22      C       1.6691863701    -0.3981619149     1.0456910655
   23      O       1.6099576847    -0.8885407472     2.1567702655
   24      H       2.2420629449    -2.0867177702     0.0837777655
 ----------------------------------------------------------------
 Molecular Point Group                 C2    NOp =  2
 Largest Abelian Subgroup              C2    NOp =  2
 Nuclear Repulsion Energy =  1161.4707031275 hartrees
 There are       58 alpha and       58 beta electrons
 Requested basis set is 6-311++G(d,p)
 There are 136 shells and 408 basis functions

 Total QAlloc Memory Limit   2000 MB
 Mega-Array Size       188 MB
 MEM_STATIC part       192 MB

finished with qalloc call
 Job number = 2, Threshold = 1.00E-08
Integral type ranges set in mkLRange.C for JobNum: 2  <1-21|1-21>
Symmetry turned off temporarily
 Using the largest function pair in Schwarz integrals
Total number of integrals generated =         1156603
Symmetry turned back on
 A cutoff of  1.0D-08 yielded   7168 shell pairs
 There are     66223 function pairs (     70915 Cartesian)
 Job number = 11, Threshold = 1.00E-08
Integral type ranges set in mkLRange.C for JobNum: 11  <1-21|22-22>
Total number of integrals generated =          856968
 Smallest overlap matrix eigenvalue = 3.40E-06

 Q-Chem warning in module /usr/local/qchem/stvman/mkSTV.C, line 295:

 Overlap eigenvalue is smaller than square root of threshold

 Multipole matrices computed through 2nd order

 Scale SEOQF with 1.000000e-01/1.000000e-01/1.000000e-01

 Standard Electronic Orientation quadrupole field applied
 Nucleus-field energy     =     0.0000000063 hartrees
 ENuRep (before)= 1161.4707031275
 ENucField = 0.0000000063
 ENuRep (after) = 1161.4707031338
 Guess from superposition of atomic densities
 Warning:  Energy on first SCF cycle will be non-variational
 SAD guess density has 116.000000 electrons

 ==================================================
    GEN_SCFMAN: A general SCF calculation manager  
                                                   
    Authors:                                       
        -- Eric Jon Sundstrom 2008-2014            
        -- Paul Horn 2010-2015                     
        -- Yuezhi Mao 2012-                        
        -- Dmitri Zuev 2014                        
        -- Alec White 2015-                        
        -- David Stuck 2015                        
        -- Shaama M.S. 2015                        
        -- Shane Yost 2015-                         
        -- Joonho Lee 2016-                        
        -- David Small 2016-                       
        -- Daniel Levine 2016-                     
        -- Susi Lehtola 2017-                      
        -- Hugh Burton 2017-                       
 ==================================================
 Hartree-Fock
Finding J and K together
 Job number = 22, Threshold = 1.00E-08
Integral type ranges set in mkLRange.C for JobNum: 22  <1-21|1-21>
 MakeJK  time:  CPU      14.25 s  wall      14.39 s
 HF Exchange:              -105.34730613057735
 One-Electron:             -3430.50695320288105
 Total Coulomb:            1543.31019849494078
 Nuclear repulsion:        1161.47070313380800
 A restricted SCF calculation will be
 performed using DIIS
 SCF converges when DIIS error is below 1.0e-05
 ---------------------------------------
  Cycle       Energy         DIIS error
 ---------------------------------------
Finding J and K together
 Job number = 22, Threshold = 1.00E-08
Integral type ranges set in mkLRange.C for JobNum: 22  <1-21|1-21>
 MakeJK  time:  CPU     115.22 s  wall     115.72 s
 HF Exchange:              -104.09991296535974
 One-Electron:             -3430.82935953141441
 Total Coulomb:            1548.77289944781137
 Nuclear repulsion:        1161.47070313380800
    1    -831.0733577047      3.65e-02  
Finding J and K together
 Job number = 22, Threshold = 1.00E-08
Integral type ranges set in mkLRange.C for JobNum: 22  <1-21|1-21>
 MakeJK  time:  CPU     125.92 s  wall     126.17 s
 HF Exchange:              -103.47578640820032
 One-Electron:             -3437.66284708515559
 Total Coulomb:            1554.78374231632461
 Nuclear repulsion:        1161.47070313380800
    2    -824.6856699152      4.88e-03  
Finding J and K together
 Job number = 22, Threshold = 1.00E-08
Integral type ranges set in mkLRange.C for JobNum: 22  <1-21|1-21>
 MakeJK  time:  CPU     121.41 s  wall     122.69 s
 HF Exchange:              -103.92216239236640
 One-Electron:             -3434.71678432168483
 Total Coulomb:            1552.01789213420443
 Nuclear repulsion:        1161.47070313380800
    3    -824.8841880432      4.24e-03  
Finding J and K together
 Job number = 22, Threshold = 1.00E-08
Integral type ranges set in mkLRange.C for JobNum: 22  <1-21|1-21>
 MakeJK  time:  CPU      91.68 s  wall      92.04 s
 HF Exchange:              -103.93815965512449
 One-Electron:             -3434.95734719197753
 Total Coulomb:            1552.26716952219181
 Nuclear repulsion:        1161.47070313380800
    4    -825.1503514460      4.70e-04  
Finding J and K together
 Job number = 22, Threshold = 1.00E-08
Integral type ranges set in mkLRange.C for JobNum: 22  <1-21|1-21>
 MakeJK  time:  CPU     123.45 s  wall     123.62 s
 HF Exchange:              -103.94085813150804
 One-Electron:             -3434.89591160239070
 Total Coulomb:            1552.20743713624597
 Nuclear repulsion:        1161.47070313380800
    5    -825.1576341911      1.68e-04  
Finding J and K together
 Job number = 22, Threshold = 1.00E-08
Integral type ranges set in mkLRange.C for JobNum: 22  <1-21|1-21>
 MakeJK  time:  CPU     102.48 s  wall     103.43 s
 HF Exchange:              -103.94582172337338
 One-Electron:             -3434.93702615532811
 Total Coulomb:            1552.25327316719836
 Nuclear repulsion:        1161.47070313380800
    6    -825.1586294638      5.84e-05  
Finding J and K together
 Job number = 22, Threshold = 1.00E-08
Integral type ranges set in mkLRange.C for JobNum: 22  <1-21|1-21>
 MakeJK  time:  CPU     110.72 s  wall     112.72 s
 HF Exchange:              -103.94736292229611
 One-Electron:             -3434.93446674754387
 Total Coulomb:            1552.25219938487635
 Nuclear repulsion:        1161.47070313380800
    7    -825.1588715777      2.86e-05  
Finding J and K together
 Job number = 22, Threshold = 1.00E-08
Integral type ranges set in mkLRange.C for JobNum: 22  <1-21|1-21>
 MakeJK  time:  CPU     121.94 s  wall     123.34 s
 HF Exchange:              -103.94733945542626
 One-Electron:             -3434.93174171426426
 Total Coulomb:            1552.24944435784346
 Nuclear repulsion:        1161.47070313380800
    8    -825.1589271512      1.19e-05  
    9    -825.1589336780      4.02e-06  Convergence criterion met
 ---------------------------------------
 SCF time:   CPU 941.06s  wall 949.00s 
 Total energy in the final basis set =     -825.1589336780
 HF Exchange:              -103.94733945542626
 One-Electron:             -3434.93174171426426
 Total Coulomb:            1552.24944435784346
 Nuclear repulsion:        1161.47070313380800
Wall  1 = 950
Clock 1 = 942.30688476562500
 ==================================================
                  Done GEN_SCFMAN                  
 ==================================================

Symmetry turned off temporarily

 --------------------------------------------------------------
             Orbital Energies (a.u.) and Symmetries
 --------------------------------------------------------------

 Alpha MOs, Restricted
 -- Occupied --                  
-20.551 -20.551 -20.550 -20.550 -15.646 -15.646 -15.632 -15.632
  1 B     1 A     2 A     2 B     3 A     3 B     4 B     4 A                  
-11.426 -11.426 -11.392 -11.392 -11.346 -11.346 -11.260 -11.260
  5 B     5 A     6 B     6 A     7 B     7 A     8 A     8 B                  
 -1.446  -1.441  -1.408  -1.408  -1.319  -1.319  -1.254  -1.252
  9 A     9 B    10 B    10 A    11 B    11 A    12 A    12 B                  
 -1.096  -1.093  -0.940  -0.939  -0.908  -0.908  -0.812  -0.811
 13 A    13 B    14 B    14 A    15 B    15 A    16 A    16 B                  
 -0.772  -0.771  -0.719  -0.719  -0.694  -0.685  -0.683  -0.659
 17 A    17 B    18 A    18 B    19 A    20 A    19 B    20 B                  
 -0.658  -0.653  -0.621  -0.621  -0.608  -0.607  -0.590  -0.570
 21 A    21 B    22 B    22 A    23 A    23 B    24 B    24 A                  
 -0.535  -0.519  -0.489  -0.487  -0.457  -0.456  -0.444  -0.442
 25 A    25 B    26 A    26 B    27 A    27 B    28 A    28 B                  
 -0.384  -0.361
 29 A    29 B                                                                  
 -- Virtual --                   
  0.026   0.034   0.051   0.054   0.066   0.066   0.072   0.075
 30 A    30 B    31 A    31 B    32 B    32 A    33 B    33 A                  
  0.079   0.091   0.098   0.107   0.108   0.117   0.131   0.132
 34 B    34 A    35 A    36 A    35 B    36 B    37 B    37 A                  
  0.136   0.140   0.145   0.154   0.159   0.159   0.162   0.162
 38 B    38 A    39 A    39 B    40 A    40 B    41 B    41 A                  
  0.173   0.175   0.181   0.184   0.186   0.188   0.191   0.192
 42 A    42 B    43 A    44 A    43 B    44 B    45 A    45 B                  
  0.199   0.205   0.210   0.216   0.221   0.222   0.230   0.244
 46 A    46 B    47 A    47 B    48 B    48 A    49 A    50 A                  
  0.252   0.255   0.255   0.272   0.273   0.279   0.280   0.284
 49 B    51 A    50 B    52 A    51 B    53 A    52 B    54 A                  
  0.297   0.316   0.319   0.319   0.327   0.336   0.338   0.340
 53 B    54 B    55 B    55 A    56 A    56 B    57 A    57 B                  
  0.347   0.353   0.366   0.367   0.373   0.378   0.387   0.388
 58 A    59 A    60 A    58 B    59 B    60 B    61 A    61 B                  
  0.397   0.400   0.402   0.408   0.416   0.416   0.421   0.424
 62 A    62 B    63 B    63 A    64 A    64 B    65 B    65 A                  
  0.433   0.435   0.447   0.448   0.456   0.460   0.463   0.469
 66 A    66 B    67 B    67 A    68 A    68 B    69 A    69 B                  
  0.475   0.482   0.490   0.492   0.496   0.512   0.513   0.519
 70 A    70 B    71 B    71 A    72 A    73 A    72 B    73 B                  
  0.530   0.539   0.546   0.564   0.575   0.595   0.609   0.631
 74 A    74 B    75 A    75 B    76 A    77 A    76 B    77 B                  
  0.643   0.660   0.678   0.705   0.724   0.728   0.730   0.743
 78 A    78 B    79 A    79 B    80 A    81 A    80 B    82 A                  
  0.753   0.768   0.771   0.776   0.802   0.810   0.815   0.824
 81 B    82 B    83 A    83 B    84 B    84 A    85 A    85 B                  
  0.833   0.844   0.855   0.885   0.887   0.894   0.902   0.923
 86 A    87 A    86 B    87 B    88 B    88 A    89 A    89 B                  
  0.932   0.938   0.955   0.958   0.959   0.981   0.981   0.992
 90 A    91 A    92 A    90 B    91 B    93 A    92 B    93 B                  
  0.997   1.000   1.010   1.011   1.032   1.043   1.067   1.069
 94 B    94 A    95 A    95 B    96 A    96 B    97 B    97 A                  
  1.085   1.097   1.097   1.120   1.143   1.153   1.171   1.187
 98 B    98 A    99 B   100 B    99 A   100 A   101 B   101 A                  
  1.213   1.218   1.227   1.250   1.253   1.263   1.276   1.278
102 B   102 A   103 B   103 A   104 A   104 B   105 B   105 A                  
  1.295   1.307   1.325   1.331   1.336   1.367   1.385   1.402
106 A   106 B   107 B   108 B   107 A   108 A   109 B   109 A                  
  1.419   1.420   1.432   1.434   1.459   1.472   1.484   1.489
110 A   110 B   111 B   111 A   112 B   112 A   113 A   114 A                  
  1.491   1.493   1.501   1.511   1.532   1.535   1.538   1.549
113 B   114 B   115 B   115 A   116 B   116 A   117 B   117 A                  
  1.562   1.565   1.626   1.635   1.652   1.662   1.765   1.776
118 B   118 A   119 B   119 A   120 B   120 A   121 A   121 B                  
  1.792   1.795   1.815   1.820   1.855   1.858   1.898   1.910
122 B   122 A   123 A   123 B   124 A   124 B   125 A   125 B                  
  1.922   1.945   1.952   1.960   1.968   1.980   1.992   1.995
126 A   127 A   126 B   128 A   127 B   128 B   129 B   129 A                  
  2.011   2.026   2.038   2.051   2.069   2.083   2.123   2.133
130 A   130 B   131 A   131 B   132 B   132 A   133 A   133 B                  
  2.145   2.162   2.175   2.176   2.201   2.206   2.230   2.254
134 B   134 A   135 A   135 B   136 A   136 B   137 A   137 B                  
  2.271   2.287   2.296   2.303   2.305   2.307   2.340   2.348
138 B   138 A   139 A   140 A   139 B   140 B   141 A   141 B                  
  2.360   2.393   2.533   2.538   2.565   2.581   2.627   2.632
142 B   142 A   143 A   143 B   144 A   144 B   145 B   145 A                  
  2.659   2.666   2.731   2.733   2.751   2.782   2.830   2.831
146 A   146 B   147 B   147 A   148 A   148 B   149 B   149 A                  
  2.843   2.843   2.856   2.876   2.932   2.957   2.978   2.978
150 A   150 B   151 A   151 B   152 A   152 B   153 B   153 A                  
  3.010   3.030   3.034   3.056   3.059   3.068   3.102   3.169
154 A   155 A   154 B   155 B   156 A   156 B   157 A   157 B                  
  3.179   3.189   3.204   3.211   3.234   3.239   3.264   3.266
158 A   158 B   159 A   159 B   160 B   160 A   161 B   161 A                  
  3.281   3.289   3.301   3.303   3.306   3.314   3.327   3.332
162 A   162 B   163 A   163 B   164 B   164 A   165 A   165 B                  
  3.350   3.360   3.392   3.408   3.419   3.444   3.531   3.540
166 A   166 B   167 A   167 B   168 A   168 B   169 A   169 B                  
  3.593   3.629   3.759   3.760   3.763   3.771   3.810   3.811
170 B   170 A   171 A   171 B   172 B   172 A   173 A   173 B                  
  3.828   3.852   3.875   3.880   3.915   3.946   3.966   3.976
174 A   174 B   175 A   175 B   176 A   176 B   177 B   177 A                  
  4.016   4.017   4.042   4.090   4.114   4.154   4.290   4.318
178 B   178 A   179 B   179 A   180 A   180 B   181 B   181 A                  
  4.383   4.384   4.421   4.442   4.479   4.488   4.503   4.511
182 A   182 B   183 A   183 B   184 B   184 A   185 A   185 B                  
  4.632   4.641   5.197   5.208   5.288   5.298   5.355   5.357
186 A   186 B   187 B   187 A   188 B   188 A   189 B   189 A                  
  5.649   5.676   5.676   5.688   5.705   5.718   5.778   5.791
190 B   191 B   190 A   191 A   192 B   192 A   193 B   193 A                  
  5.855   5.864   6.345   6.359   6.415   6.424  24.882  24.886
194 B   194 A   195 A   195 B   196 A   196 B   197 B   197 A                  
 24.984  24.996  25.040  25.043  25.322  25.327  37.019  37.024
198 B   198 A   199 A   199 B   200 A   200 B   201 B   201 A                  
 37.053  37.054  51.721  51.742  51.760  51.768
202 B   202 A   203 A   203 B   204 A   204 B                                  

 Beta MOs, Restricted
 -- Occupied --                  
-20.551 -20.551 -20.550 -20.550 -15.646 -15.646 -15.632 -15.632
  1 B     1 A     2 A     2 B     3 A     3 B     4 B     4 A                  
-11.426 -11.426 -11.392 -11.392 -11.346 -11.346 -11.260 -11.260
  5 B     5 A     6 B     6 A     7 B     7 A     8 A     8 B                  
 -1.446  -1.441  -1.408  -1.408  -1.319  -1.319  -1.254  -1.252
  9 A     9 B    10 B    10 A    11 B    11 A    12 A    12 B                  
 -1.096  -1.093  -0.940  -0.939  -0.908  -0.908  -0.812  -0.811
 13 A    13 B    14 B    14 A    15 B    15 A    16 A    16 B                  
 -0.772  -0.771  -0.719  -0.719  -0.694  -0.685  -0.683  -0.659
 17 A    17 B    18 A    18 B    19 A    20 A    19 B    20 B                  
 -0.658  -0.653  -0.621  -0.621  -0.608  -0.607  -0.590  -0.570
 21 A    21 B    22 B    22 A    23 A    23 B    24 B    24 A                  
 -0.535  -0.519  -0.489  -0.487  -0.457  -0.456  -0.444  -0.442
 25 A    25 B    26 A    26 B    27 A    27 B    28 A    28 B                  
 -0.384  -0.361
 29 A    29 B                                                                  
 -- Virtual --                   
  0.026   0.034   0.051   0.054   0.066   0.066   0.072   0.075
 30 A    30 B    31 A    31 B    32 B    32 A    33 B    33 A                  
  0.079   0.091   0.098   0.107   0.108   0.117   0.131   0.132
 34 B    34 A    35 A    36 A    35 B    36 B    37 B    37 A                  
  0.136   0.140   0.145   0.154   0.159   0.159   0.162   0.162
 38 B    38 A    39 A    39 B    40 A    40 B    41 B    41 A                  
  0.173   0.175   0.181   0.184   0.186   0.188   0.191   0.192
 42 A    42 B    43 A    44 A    43 B    44 B    45 A    45 B                  
  0.199   0.205   0.210   0.216   0.221   0.222   0.230   0.244
 46 A    46 B    47 A    47 B    48 B    48 A    49 A    50 A                  
  0.252   0.255   0.255   0.272   0.273   0.279   0.280   0.284
 49 B    51 A    50 B    52 A    51 B    53 A    52 B    54 A                  
  0.297   0.316   0.319   0.319   0.327   0.336   0.338   0.340
 53 B    54 B    55 B    55 A    56 A    56 B    57 A    57 B                  
  0.347   0.353   0.366   0.367   0.373   0.378   0.387   0.388
 58 A    59 A    60 A    58 B    59 B    60 B    61 A    61 B                  
  0.397   0.400   0.402   0.408   0.416   0.416   0.421   0.424
 62 A    62 B    63 B    63 A    64 A    64 B    65 B    65 A                  
  0.433   0.435   0.447   0.448   0.456   0.460   0.463   0.469
 66 A    66 B    67 B    67 A    68 A    68 B    69 A    69 B                  
  0.475   0.482   0.490   0.492   0.496   0.512   0.513   0.519
 70 A    70 B    71 B    71 A    72 A    73 A    72 B    73 B                  
  0.530   0.539   0.546   0.564   0.575   0.595   0.609   0.631
 74 A    74 B    75 A    75 B    76 A    77 A    76 B    77 B                  
  0.643   0.660   0.678   0.705   0.724   0.728   0.730   0.743
 78 A    78 B    79 A    79 B    80 A    81 A    80 B    82 A                  
  0.753   0.768   0.771   0.776   0.802   0.810   0.815   0.824
 81 B    82 B    83 A    83 B    84 B    84 A    85 A    85 B                  
  0.833   0.844   0.855   0.885   0.887   0.894   0.902   0.923
 86 A    87 A    86 B    87 B    88 B    88 A    89 A    89 B                  
  0.932   0.938   0.955   0.958   0.959   0.981   0.981   0.992
 90 A    91 A    92 A    90 B    91 B    93 A    92 B    93 B                  
  0.997   1.000   1.010   1.011   1.032   1.043   1.067   1.069
 94 B    94 A    95 A    95 B    96 A    96 B    97 B    97 A                  
  1.085   1.097   1.097   1.120   1.143   1.153   1.171   1.187
 98 B    98 A    99 B   100 B    99 A   100 A   101 B   101 A                  
  1.213   1.218   1.227   1.250   1.253   1.263   1.276   1.278
102 B   102 A   103 B   103 A   104 A   104 B   105 B   105 A                  
  1.295   1.307   1.325   1.331   1.336   1.367   1.385   1.402
106 A   106 B   107 B   108 B   107 A   108 A   109 B   109 A                  
  1.419   1.420   1.432   1.434   1.459   1.472   1.484   1.489
110 A   110 B   111 B   111 A   112 B   112 A   113 A   114 A                  
  1.491   1.493   1.501   1.511   1.532   1.535   1.538   1.549
113 B   114 B   115 B   115 A   116 B   116 A   117 B   117 A                  
  1.562   1.565   1.626   1.635   1.652   1.662   1.765   1.776
118 B   118 A   119 B   119 A   120 B   120 A   121 A   121 B                  
  1.792   1.795   1.815   1.820   1.855   1.858   1.898   1.910
122 B   122 A   123 A   123 B   124 A   124 B   125 A   125 B                  
  1.922   1.945   1.952   1.960   1.968   1.980   1.992   1.995
126 A   127 A   126 B   128 A   127 B   128 B   129 B   129 A                  
  2.011   2.026   2.038   2.051   2.069   2.083   2.123   2.133
130 A   130 B   131 A   131 B   132 B   132 A   133 A   133 B                  
  2.145   2.162   2.175   2.176   2.201   2.206   2.230   2.254
134 B   134 A   135 A   135 B   136 A   136 B   137 A   137 B                  
  2.271   2.287   2.296   2.303   2.305   2.307   2.340   2.348
138 B   138 A   139 A   140 A   139 B   140 B   141 A   141 B                  
  2.360   2.393   2.533   2.538   2.565   2.581   2.627   2.632
142 B   142 A   143 A   143 B   144 A   144 B   145 B   145 A                  
  2.659   2.666   2.731   2.733   2.751   2.782   2.830   2.831
146 A   146 B   147 B   147 A   148 A   148 B   149 B   149 A                  
  2.843   2.843   2.856   2.876   2.932   2.957   2.978   2.978
150 A   150 B   151 A   151 B   152 A   152 B   153 B   153 A                  
  3.010   3.030   3.034   3.056   3.059   3.068   3.102   3.169
154 A   155 A   154 B   155 B   156 A   156 B   157 A   157 B                  
  3.179   3.189   3.204   3.211   3.234   3.239   3.264   3.266
158 A   158 B   159 A   159 B   160 B   160 A   161 B   161 A                  
  3.281   3.289   3.301   3.303   3.306   3.314   3.327   3.332
162 A   162 B   163 A   163 B   164 B   164 A   165 A   165 B                  
  3.350   3.360   3.392   3.408   3.419   3.444   3.531   3.540
166 A   166 B   167 A   167 B   168 A   168 B   169 A   169 B                  
  3.593   3.629   3.759   3.760   3.763   3.771   3.810   3.811
170 B   170 A   171 A   171 B   172 B   172 A   173 A   173 B                  
  3.828   3.852   3.875   3.880   3.915   3.946   3.966   3.976
174 A   174 B   175 A   175 B   176 A   176 B   177 B   177 A                  
  4.016   4.017   4.042   4.090   4.114   4.154   4.290   4.318
178 B   178 A   179 B   179 A   180 A   180 B   181 B   181 A                  
  4.383   4.384   4.421   4.442   4.479   4.488   4.503   4.511
182 A   182 B   183 A   183 B   184 B   184 A   185 A   185 B                  
  4.632   4.641   5.197   5.208   5.288   5.298   5.355   5.357
186 A   186 B   187 B   187 A   188 B   188 A   189 B   189 A                  
  5.649   5.676   5.676   5.688   5.705   5.718   5.778   5.791
190 B   191 B   190 A   191 A   192 B   192 A   193 B   193 A                  
  5.855   5.864   6.345   6.359   6.415   6.424  24.882  24.886
194 B   194 A   195 A   195 B   196 A   196 B   197 B   197 A                  
 24.984  24.996  25.040  25.043  25.322  25.327  37.019  37.024
198 B   198 A   199 A   199 B   200 A   200 B   201 B   201 A                  
 37.053  37.054  51.721  51.742  51.760  51.768
202 B   202 A   203 A   203 B   204 A   204 B                                  
 --------------------------------------------------------------

          Ground-State Mulliken Net Atomic Charges

     Atom                 Charge (a.u.)
  ----------------------------------------
      1 N                    -0.361916
      2 C                    -0.228066
      3 H                     0.236082
      4 C                     0.286827
      5 H                     0.257228
      6 C                    -0.145242
      7 O                    -0.345553
      8 N                    -0.382363
      9 H                     0.465075
     10 C                     0.171559
     11 O                    -0.367688
     12 H                     0.414058
     13 N                    -0.361916
     14 C                    -0.228066
     15 H                     0.236082
     16 C                     0.286827
     17 H                     0.257228
     18 C                    -0.145242
     19 O                    -0.345553
     20 N                    -0.382363
     21 H                     0.465075
     22 C                     0.171559
     23 O                    -0.367688
     24 H                     0.414058
  ----------------------------------------
  Sum of atomic charges =     0.000000

 -----------------------------------------------------------------
                    Cartesian Multipole Moments
 -----------------------------------------------------------------
    Charge (ESU x 10^10)
                 0.0000
    Dipole Moment (Debye)
         X      -0.0000      Y      -0.0000      Z      -5.8711
       Tot       5.8711
    Quadrupole Moments (Debye-Ang)
        XX     -82.6874     XY     -10.8523     YY    -105.9947
        XZ       0.0000     YZ      -0.0000     ZZ     -97.1750
    Octopole Moments (Debye-Ang^2)
       XXX      -0.0000    XXY      -0.0000    XYY      -0.0000
       YYY      -0.0000    XXZ     -25.2659    XYZ      27.7977
       YYZ      15.5808    XZZ      -0.0000    YZZ       0.0000
       ZZZ     -48.6377
    Hexadecapole Moments (Debye-Ang^3)
      XXXX   -1516.6396   XXXY     -70.7189   XXYY    -372.1149
      XYYY    -125.5119   YYYY   -1211.8276   XXXZ       0.0000
      XXYZ       0.0000   XYYZ       0.0000   YYYZ      -0.0000
      XXZZ    -417.4303   XYZZ      20.6353   YYZZ    -325.5955
      XZZZ       0.0000   YZZZ      -0.0000   ZZZZ    -957.7028
 -----------------------------------------------------------------
 Mayer SCF Bond Order, atomic valence on the diagonal:

            1           2           3           4           5           6
    1   2.7936012   0.9299184  -0.0430753  -0.0019388   0.0101665  -0.0089093
    2   0.9299184   3.9840754   0.9005662   1.7907933   0.0458414   0.1960299
    3  -0.0430753   0.9005662   0.9161859   0.0342306   0.0030518   0.0036665
    4  -0.0019388   1.7907933   0.0342306   2.7889167   0.8340227   0.7686167
    5   0.0101665   0.0458414   0.0030518   0.8340227   0.8822123   0.0192826
    6  -0.0089093   0.1960299   0.0036665   0.7686167   0.0192826   4.4843058
    7   0.0094250   0.0125393   0.0011784  -0.3765508  -0.0307065   2.3184354
    8  -0.0313770  -0.0456469  -0.0006837  -0.1387446   0.0109968   1.1668480
    9   0.0103353  -0.0124411  -0.0006361  -0.0127185   0.0007533   0.0223509
   10   1.1626944  -0.0231414   0.0157366   0.0499123  -0.0037467  -0.0425189
   11  -0.0859435   0.0741496   0.0027686  -0.0185997  -0.0004220   0.0550409
   12   0.8384033   0.0068910   0.0040290  -0.0186403   0.0004904  -0.0018753
   13   0.0027242   0.0079451  -0.0001360  -0.0528993  -0.0001751   0.0805577
   14   0.0079451   0.0893842   0.0015373   0.0453656   0.0040567   0.0166094
   15  -0.0001360   0.0015373  -0.0000730   0.0025330   0.0008737  -0.0050015
   16  -0.0528993   0.0453656   0.0025330  -0.0151364  -0.0128849  -0.1539501
   17  -0.0001751   0.0040567   0.0008737  -0.0128849  -0.0000286   0.0014855
   18   0.0805577   0.0166094  -0.0050015  -0.1539501   0.0014855   0.0731224
   19   0.0440008  -0.0272230  -0.0033701   0.0344687   0.0001340  -0.0266397
   20  -0.0554453  -0.0200189   0.0001805  -0.0012643  -0.0000216   0.0389008
   21  -0.0028629  -0.0011330  -0.0000437  -0.0034497   0.0000144   0.0018521
   22  -0.0178561  -0.0042175  -0.0006290   0.0175416  -0.0010622   0.0151667
   23  -0.0015884  -0.0048576  -0.0005221   0.0181600   0.0000302  -0.0471519
   24  -0.0003625   0.0011276   0.0000042   0.0000498   0.0000600  -0.0076129
            7           8           9          10          11          12
    1   0.0094250  -0.0313770   0.0103353   1.1626944  -0.0859435   0.8384033
    2   0.0125393  -0.0456469  -0.0124411  -0.0231414   0.0741496   0.0068910
    3   0.0011784  -0.0006837  -0.0006361   0.0157366   0.0027686   0.0040290
    4  -0.3765508  -0.1387446  -0.0127185   0.0499123  -0.0185997  -0.0186403
    5  -0.0307065   0.0109968   0.0007533  -0.0037467  -0.0004220   0.0004904
    6   2.3184354   1.1668480   0.0223509  -0.0425189   0.0550409  -0.0018753
    7   1.8808468  -0.0749649  -0.0327498   0.0603538   0.0065528   0.0006234
    8  -0.0749649   2.5817219   0.8241743   1.0037603  -0.0912365   0.0103222
    9  -0.0327498   0.8241743   0.7542599  -0.0114414  -0.0216936   0.0006218
   10   0.0603538   1.0037603  -0.0114414   4.2088864   1.9342906  -0.0031541
   11   0.0065528  -0.0912365  -0.0216936   1.9342906   1.8208077  -0.0191785
   12   0.0006234   0.0103222   0.0006218  -0.0031541  -0.0191785   0.8028242
   13   0.0440008  -0.0554453  -0.0028629  -0.0178561  -0.0015884  -0.0003625
   14  -0.0272230  -0.0200189  -0.0011330  -0.0042175  -0.0048576   0.0011276
   15  -0.0033701   0.0001805  -0.0000437  -0.0006290  -0.0005221   0.0000042
   16   0.0344687  -0.0012643  -0.0034497   0.0175416   0.0181600   0.0000498
   17   0.0001340  -0.0000216   0.0000144  -0.0010622   0.0000302   0.0000600
   18  -0.0266397   0.0389008   0.0018521   0.0151667  -0.0471519  -0.0076129
   19  -0.0002486  -0.0058473   0.0003614  -0.0140292  -0.0050491  -0.0098473
   20  -0.0058473  -0.0318419  -0.0030318   0.0238509   0.0024935   0.0003193
   21   0.0003614  -0.0030318   0.0003636   0.0003593  -0.0049560   0.0002309
   22  -0.0140292   0.0238509   0.0003593   0.0206653   0.0266131  -0.0002619
   23  -0.0050491   0.0024935  -0.0049560   0.0266131   0.0014374   0.0004700
   24  -0.0098473   0.0003193   0.0002309  -0.0002619   0.0004700   0.0001138
           13          14          15          16          17          18
    1   0.0027242   0.0079451  -0.0001360  -0.0528993  -0.0001751   0.0805577
    2   0.0079451   0.0893842   0.0015373   0.0453656   0.0040567   0.0166094
    3  -0.0001360   0.0015373  -0.0000730   0.0025330   0.0008737  -0.0050015
    4  -0.0528993   0.0453656   0.0025330  -0.0151364  -0.0128849  -0.1539501
    5  -0.0001751   0.0040567   0.0008737  -0.0128849  -0.0000286   0.0014855
    6   0.0805577   0.0166094  -0.0050015  -0.1539501   0.0014855   0.0731224
    7   0.0440008  -0.0272230  -0.0033701   0.0344687   0.0001340  -0.0266397
    8  -0.0554453  -0.0200189   0.0001805  -0.0012643  -0.0000216   0.0389008
    9  -0.0028629  -0.0011330  -0.0000437  -0.0034497   0.0000144   0.0018521
   10  -0.0178561  -0.0042175  -0.0006290   0.0175416  -0.0010622   0.0151667
   11  -0.0015884  -0.0048576  -0.0005221   0.0181600   0.0000302  -0.0471519
   12  -0.0003625   0.0011276   0.0000042   0.0000498   0.0000600  -0.0076129
   13   2.7936012   0.9299184  -0.0430753  -0.0019388   0.0101665  -0.0089093
   14   0.9299184   3.9840754   0.9005662   1.7907933   0.0458414   0.1960299
   15  -0.0430753   0.9005662   0.9161859   0.0342306   0.0030518   0.0036665
   16  -0.0019388   1.7907933   0.0342306   2.7889167   0.8340227   0.7686167
   17   0.0101665   0.0458414   0.0030518   0.8340227   0.8822123   0.0192826
   18  -0.0089093   0.1960299   0.0036665   0.7686167   0.0192826   4.4843058
   19   0.0094250   0.0125393   0.0011784  -0.3765508  -0.0307065   2.3184354
   20  -0.0313770  -0.0456469  -0.0006837  -0.1387446   0.0109968   1.1668480
   21   0.0103353  -0.0124411  -0.0006361  -0.0127185   0.0007533   0.0223509
   22   1.1626944  -0.0231414   0.0157366   0.0499123  -0.0037467  -0.0425189
   23  -0.0859435   0.0741496   0.0027686  -0.0185997  -0.0004220   0.0550409
   24   0.8384033   0.0068910   0.0040290  -0.0186403   0.0004904  -0.0018753
           19          20          21          22          23          24
    1   0.0440008  -0.0554453  -0.0028629  -0.0178561  -0.0015884  -0.0003625
    2  -0.0272230  -0.0200189  -0.0011330  -0.0042175  -0.0048576   0.0011276
    3  -0.0033701   0.0001805  -0.0000437  -0.0006290  -0.0005221   0.0000042
    4   0.0344687  -0.0012643  -0.0034497   0.0175416   0.0181600   0.0000498
    5   0.0001340  -0.0000216   0.0000144  -0.0010622   0.0000302   0.0000600
    6  -0.0266397   0.0389008   0.0018521   0.0151667  -0.0471519  -0.0076129
    7  -0.0002486  -0.0058473   0.0003614  -0.0140292  -0.0050491  -0.0098473
    8  -0.0058473  -0.0318419  -0.0030318   0.0238509   0.0024935   0.0003193
    9   0.0003614  -0.0030318   0.0003636   0.0003593  -0.0049560   0.0002309
   10  -0.0140292   0.0238509   0.0003593   0.0206653   0.0266131  -0.0002619
   11  -0.0050491   0.0024935  -0.0049560   0.0266131   0.0014374   0.0004700
   12  -0.0098473   0.0003193   0.0002309  -0.0002619   0.0004700   0.0001138
   13   0.0094250  -0.0313770   0.0103353   1.1626944  -0.0859435   0.8384033
   14   0.0125393  -0.0456469  -0.0124411  -0.0231414   0.0741496   0.0068910
   15   0.0011784  -0.0006837  -0.0006361   0.0157366   0.0027686   0.0040290
   16  -0.3765508  -0.1387446  -0.0127185   0.0499123  -0.0185997  -0.0186403
   17  -0.0307065   0.0109968   0.0007533  -0.0037467  -0.0004220   0.0004904
   18   2.3184354   1.1668480   0.0223509  -0.0425189   0.0550409  -0.0018753
   19   1.8808468  -0.0749649  -0.0327498   0.0603538   0.0065528   0.0006234
   20  -0.0749649   2.5817219   0.8241743   1.0037603  -0.0912365   0.0103222
   21  -0.0327498   0.8241743   0.7542599  -0.0114414  -0.0216936   0.0006218
   22   0.0603538   1.0037603  -0.0114414   4.2088864   1.9342906  -0.0031541
   23   0.0065528  -0.0912365  -0.0216936   1.9342906   1.8208077  -0.0191785
   24   0.0006234   0.0103222   0.0006218  -0.0031541  -0.0191785   0.8028242


 JobOver = TRUE
Archival summary:
1\1\qciep03\SP\HF\BasisUnspecified\4488\jcartus\ThuJan2517:43:442018ThuJan2517:43:442018\0\\#,HF,BasisUnspecified,\\0,1\N\H,1,1.01312\C,1,1.38153,2,114.817\O,3,1.21593,1,123.925,2,-2.91,0\N,3,1.38228,1,112.982,2,176.454,0\H,5,1.00731,3,115.055,1,-174.428,0\C,5,1.36751,3,123.518,1,-3.77881,0\H,7,1.07967,5,115.479,3,-177.83,0\C,7,1.34918,5,121.898,3,1.91183,0\H,9,1.07624,7,121.478,5,-179.953,0\C,1,1.40067,2,116.373,3,170.999,0\O,11,1.22173,1,120.612,2,2.55572,0\O,2,2.71419,1,113.609,3,-77.9975,0\C,13,1.21593,2,85.6494,1,-16.8434,0\N,14,1.38153,13,123.925,2,86.9035,0\H,15,1.01312,14,114.817,13,-2.91,0\N,14,1.38228,13,123.09,2,-92.3973,0\H,17,1.00731,14,115.055,13,4.94204,0\C,17,1.36751,14,123.518,13,175.591,0\H,19,1.07967,17,115.479,14,-177.83,0\C,19,1.34918,17,121.898,14,1.91183,0\H,21,1.07624,19,121.478,17,-179.953,0\C,15,1.40067,14,128.078,13,-172.653,0\O,23,1.22173,15,120.612,14,172.163,0\\HF=-825.158934\\@

 Total job time:  957.25s(wall), 949.38s(cpu) 
 Thu Jan 25 17:43:44 2018

        *************************************************************
        *                                                           *
        *  Thank you very much for using Q-Chem.  Have a nice day.  *
        *                                                           *
        *************************************************************


*** MISSION COMPLETED -- STARFLEET OUT ***

0 sent ACK to 0 
now end server 0 ... 
