Process 0 of 1 is on qciep03 - thread support 0
initial socket setup ...start
initial socket setup ...done 
now start server 0 ... 
qciep03.tugraz.at 127.0.1
Q-Chem Developer Version! Running on 127.0.1.*
                  Welcome to Q-Chem
     A Quantum Leap Into The Future Of Chemistry


 Q-Chem 5.0, Q-Chem, Inc., Pleasanton, CA (2017)

 Yihan Shao,  Zhengting Gan,  E. Epifanovsky,  A. T. B. Gilbert,  M. Wormit,  
 J. Kussmann,  A. W. Lange,  A. Behn,  Jia Deng,  Xintian Feng,  D. Ghosh,  
 M. Goldey,  P. R. Horn,  L. D. Jacobson,  I. Kaliman,  T. Kus,  A. Landau,  
 Jie Liu,  E. I. Proynov,  R. M. Richard,  R. P. Steele,  E. J. Sundstrom,  
 H. L. Woodcock III,  P. M. Zimmerman,  D. Zuev,  B. Albrecht,  E. Alguire,  
 S. A. Baeppler,  D. Barton,  Z. Benda,  Y. A. Bernard,  E. J. Berquist,  
 K. B. Bravaya,  H. Burton,  D. Casanova,  Chun-Min Chang,  Yunqing Chen,  
 A. Chien,  K. D. Closser,  M. P. Coons,  S. Dasgupta,  A. L. Dempwolff,  
 M. Diedenhofen,  Hainam Do,  R. G. Edgar,  Po-Tung Fang,  S. Fatehi,  
 Qingguo Feng,  J. Fosso-Tande,  Qinghui Ge,  A. Ghysels,  G. Gidofalvi,  
 J. Gomes,  J. Gonthier,  A. Gunina,  M. W. D. Hanson-Heine,  
 P. H. P. Harbach,  A. W. Hauser,  J. E. Herr,  E. G. Hohenstein,  
 Z. C. Holden,  Kerwin Hui,  T.-C. Jagau,  Hyunjun Ji,  B. Kaduk,  
 K. Khistyaev,  Jaehoon Kim,  P. Klunzinger,  K. Koh,  D. Kosenkov,  
 L. Koulias,  T. Kowalczyk,  C. M. Krauter,  A. Kunitsa,  Ka Un Lao,  
 A. Laurent,  K. V. Lawler,  Joonho Lee,  D. Lefrancois,  S. Lehtola,  
 D. S. Levine,  Yi-Pei Li,  You-Sheng Lin,  Fenglai Liu,  E. Livshits,  
 A. Luenser,  P. Manohar,  E. Mansoor,  S. F. Manzer,  Shan-Ping Mao,  
 Yuezhi Mao,  N. Mardirossian,  A. V. Marenich,  T. Markovich,  
 L. A. Martinez-Martinez,  S. A. Maurer,  N. J. Mayhall,  S. C. McKenzie,  
 J.-M. Mewes,  A. F. Morrison,  J. W. Mullinax,  K. Nanda,  
 T. S. Nguyen-Beck,  R. Olivares-Amaya,  J. A. Parkhill,  T. M. Perrine,  
 F. Plasser,  S. Prager,  A. Prociuk,  E. Ramos,  D. R. Rehn,  F. Rob,  
 M. Schneider,  N. Sergueev,  S. M. Sharada,  S. Sharma,  D. W. Small,  
 T. Stauch,  T. Stein,  Yu-Chuan Su,  A. J. W. Thom,  A. Tkatchenko,  
 T. Tsuchimochi,  L. Vogt,  O. Vydrov,  M. A. Watson,  J. Wenzel,  
 M. de Wergifosse,  T. A. Wesolowski,  A. White,  J. Witte,  A. Yamada,  
 Jun Yang,  K. Yao,  S. Yeganeh,  S. R. Yost,  Zhi-Qiang You,  A. Zech,  
 Igor Ying Zhang,  Xing Zhang,  Yan Zhao,  Ying Zhu,  B. R. Brooks,  
 G. K. L. Chan,  C. J. Cramer,  M. S. Gordon,  W. J. Hehre,  A. Klamt,  
 M. W. Schmidt,  C. D. Sherrill,  D. G. Truhlar,  A. Aspuru-Guzik,  R. Baer,  
 A. T. Bell,  N. A. Besley,  Jeng-Da Chai,  R. A. DiStasio Jr.,  A. Dreuw,  
 B. D. Dunietz,  T. R. Furlani,  Chao-Ping Hsu,  Yousung Jung,  Jing Kong,  
 D. S. Lambrecht,  WanZhen Liang,  C. Ochsenfeld,  V. A. Rassolov,  
 L. V. Slipchenko,  J. E. Subotnik,  T. Van Voorhis,  J. M. Herbert,  
 A. I. Krylov,  P. M. W. Gill,  M. Head-Gordon

 Contributors to earlier versions of Q-Chem not listed above: 
 R. D. Adamson,  B. Austin,  J. Baker,  G. J. O. Beran,  K. Brandhorst,  
 S. T. Brown,  E. F. C. Byrd,  A. K. Chakraborty,  C.-L. Cheng,  
 Siu Hung Chien,  D. M. Chipman,  D. L. Crittenden,  H. Dachsel,  
 R. J. Doerksen,  A. D. Dutoi,  L. Fusti-Molnar,  W. A. Goddard III,  
 A. Golubeva-Zadorozhnaya,  S. R. Gwaltney,  G. Hawkins,  A. Heyden,  
 S. Hirata,  G. Kedziora,  F. J. Keil,  C. Kelley,  Jihan Kim,  R. A. King,  
 R. Z. Khaliullin,  P. P. Korambath,  W. Kurlancheek,  A. M. Lee,  M. S. Lee,  
 S. V. Levchenko,  Ching Yeh Lin,  D. Liotard,  R. C. Lochan,  I. Lotan,  
 P. E. Maslen,  N. Nair,  D. P. O'Neill,  D. Neuhauser,  E. Neuscamman,  
 C. M. Oana,  R. Olson,  B. Peters,  R. Peverati,  P. A. Pieniazek,  
 Y. M. Rhee,  J. Ritchie,  M. A. Rohrdanz,  E. Rosta,  N. J. Russ,  
 H. F. Schaefer III,  N. E. Schultz,  N. Shenvi,  A. C. Simmonett,  A. Sodt,  
 D. Stuck,  K. S. Thanthiriwatte,  V. Vanovschi,  Tao Wang,  A. Warshel,  
 C. F. Williams,  Q. Wu,  X. Xu,  W. Zhang

 Please cite Q-Chem as follows:
 Y. Shao et al., Mol. Phys. 113, 184-215 (2015)
 DOI: 10.1080/00268976.2014.952696

 Q-Chem 5.0.2 for Intel X86 EM64T Linux

 Parts of Q-Chem use Armadillo 5.200.1 (Boston Tea Smuggler).
 http://arma.sourceforge.net/

 Q-Chem begins on Thu Feb  1 12:09:37 2018  


Host: 0

     Scratch files written to /home/jcartus/scratch/05_fluoromethane-methane_mono1.dir//
 Using version located at /usr/local/qchem/bin/qchem

 Parallel job on  1  processors

Total Memory Limit in MB = 2000
Mega-Array Size in MB = 192

Checking the input file for inconsistencies... 	...done.
Finally everything over in PARseQInput

--------------------------------------------------------------
User input:
--------------------------------------------------------------
$rem
SCF_PRINT                     1
BASIS                         6-311++g**
SCF_SAVE_MATRICES             1
SCF_CONVERGENCE               5
SCF_FINAL_PRINT               1
METHOD                        hf
JOBTYPE                       sp
$end

$molecule
0 1
C    0.00591865    -0.003496527    1.853878993
F    -1.172542855    0.674817567    1.614587488
H    0.830709843    0.546048289    1.407962789
H    -0.056058041    -0.993747823    1.41035538
H    0.156078035    -0.088328739    2.927069055
$end


--------------------------------------------------------------
 ----------------------------------------------------------------
             Standard Nuclear Orientation (Angstroms)
    I     Atom           X                Y                Z
 ----------------------------------------------------------------
    1      C       0.6309080404     0.0002689144    -0.0000051576
    2      F      -0.7497229020    -0.0001236553     0.0000020224
    3      H       0.9877832752    -0.5159335436    -0.8873023835
    4      H       0.9878030685    -0.5119925891     0.8895824017
    5      H       0.9864715318     1.0274255435    -0.0022672741
 ----------------------------------------------------------------
 Molecular Point Group                 C1    NOp =  1
 Largest Abelian Subgroup              C1    NOp =  1
 Nuclear Repulsion Energy =    37.4349368952 hartrees
 There are        9 alpha and        9 beta electrons
 Requested basis set is 6-311++G(d,p)
 There are 27 shells and 65 basis functions

 Total QAlloc Memory Limit   2000 MB
 Mega-Array Size       188 MB
 MEM_STATIC part       192 MB

finished with qalloc call

                       Distance Matrix (Angstroms)
             C (  1)   F (  2)   H (  3)   H (  4)
   F (  2)  1.380631
   H (  3)  1.086794  2.017993
   H (  4)  1.086808  2.018009  1.776889
   H (  5)  1.086960  2.017482  1.779114  1.779103

 Job number = 2, Threshold = 1.00E-08
Integral type ranges set in mkLRange.C for JobNum: 2  <1-21|1-21>
Symmetry turned off temporarily
 Using the largest function pair in Schwarz integrals
Total number of integrals generated =           31489
Symmetry turned back on
 A cutoff of  1.0D-08 yielded    378 shell pairs
 There are      2222 function pairs (      2365 Cartesian)
 Job number = 11, Threshold = 1.00E-08
Integral type ranges set in mkLRange.C for JobNum: 11  <1-21|22-22>
Total number of integrals generated =           11825
 Smallest overlap matrix eigenvalue = 1.45E-03
 Multipole matrices computed through 2nd order

 Scale SEOQF with 1.000000e-01/1.000000e-01/1.000000e-01

 Standard Electronic Orientation quadrupole field applied
 Nucleus-field energy     =     0.0000000003 hartrees
 ENuRep (before)= 37.4349368952
 ENucField = 0.0000000003
 ENuRep (after) = 37.4349368955
 Guess from superposition of atomic densities
 Warning:  Energy on first SCF cycle will be non-variational
 SAD guess density has 18.000000 electrons

 ==================================================
    GEN_SCFMAN: A general SCF calculation manager  
                                                   
    Authors:                                       
        -- Eric Jon Sundstrom 2008-2014            
        -- Paul Horn 2010-2015                     
        -- Yuezhi Mao 2012-                        
        -- Dmitri Zuev 2014                        
        -- Alec White 2015-                        
        -- David Stuck 2015                        
        -- Shaama M.S. 2015                        
        -- Shane Yost 2015-                         
        -- Joonho Lee 2016-                        
        -- David Small 2016-                       
        -- Daniel Levine 2016-                     
        -- Susi Lehtola 2017-                      
        -- Hugh Burton 2017-                       
 ==================================================
 Hartree-Fock
Finding J and K together
 Job number = 22, Threshold = 1.00E-08
Integral type ranges set in mkLRange.C for JobNum: 22  <1-21|1-21>
 MakeJK  time:  CPU       0.35 s  wall       0.38 s
 HF Exchange:              -16.13223418849860
 One-Electron:             -265.01311623470235
 Total Coulomb:            104.48850160082597
 Nuclear repulsion:         37.43493689547334
 A restricted SCF calculation will be
 performed using DIIS
 SCF converges when DIIS error is below 1.0e-05
 ---------------------------------------
  Cycle       Energy         DIIS error
 ---------------------------------------
Finding J and K together
 Job number = 22, Threshold = 1.00E-08
Integral type ranges set in mkLRange.C for JobNum: 22  <1-21|1-21>
 MakeJK  time:  CPU       0.61 s  wall       0.67 s
 HF Exchange:              -16.34848073554397
 One-Electron:             -266.66122303045228
 Total Coulomb:            106.52283066112074
 Nuclear repulsion:         37.43493689547334
    1    -139.2219119269      6.83e-02  
Finding J and K together
 Job number = 22, Threshold = 1.00E-08
Integral type ranges set in mkLRange.C for JobNum: 22  <1-21|1-21>
 MakeJK  time:  CPU       0.61 s  wall       0.69 s
 HF Exchange:              -16.27311456676572
 One-Electron:             -266.19985343595641
 Total Coulomb:            105.96163926781985
 Nuclear repulsion:         37.43493689547334
    2    -139.0519362094      8.06e-03  
Finding J and K together
 Job number = 22, Threshold = 1.00E-08
Integral type ranges set in mkLRange.C for JobNum: 22  <1-21|1-21>
 MakeJK  time:  CPU       0.61 s  wall       0.68 s
 HF Exchange:              -16.33919581510886
 One-Electron:             -266.56535112498671
 Total Coulomb:            106.38699500789562
 Nuclear repulsion:         37.43493689547334
    3    -139.0763918394      4.54e-03  
Finding J and K together
 Job number = 22, Threshold = 1.00E-08
Integral type ranges set in mkLRange.C for JobNum: 22  <1-21|1-21>
 MakeJK  time:  CPU       0.62 s  wall       0.68 s
 HF Exchange:              -16.33089106346626
 One-Electron:             -266.47039320341497
 Total Coulomb:            106.28343437870251
 Nuclear repulsion:         37.43493689547334
    4    -139.0826150367      7.47e-04  
Finding J and K together
 Job number = 22, Threshold = 1.00E-08
Integral type ranges set in mkLRange.C for JobNum: 22  <1-21|1-21>
 MakeJK  time:  CPU       0.62 s  wall       0.70 s
 HF Exchange:              -16.33459143821687
 One-Electron:             -266.49796025535306
 Total Coulomb:            106.31468300547584
 Nuclear repulsion:         37.43493689547334
    5    -139.0829129927      1.75e-04  
Finding J and K together
 Job number = 22, Threshold = 1.00E-08
Integral type ranges set in mkLRange.C for JobNum: 22  <1-21|1-21>
 MakeJK  time:  CPU       0.62 s  wall       0.67 s
 HF Exchange:              -16.33414706160491
 One-Electron:             -266.49276793314232
 Total Coulomb:            106.30904514892376
 Nuclear repulsion:         37.43493689547334
    6    -139.0829317926      3.70e-05  
    7    -139.0829329504      9.55e-06  Convergence criterion met
 ---------------------------------------
 SCF time:   CPU 4.13s  wall 5.00s 
 Total energy in the final basis set =     -139.0829329504
 HF Exchange:              -16.33414706160491
 One-Electron:             -266.49276793314232
 Total Coulomb:            106.30904514892376
 Nuclear repulsion:         37.43493689547334
Wall  1 = 5
Clock 1 = 4.14798879623413
 ==================================================
                  Done GEN_SCFMAN                  
 ==================================================

Symmetry turned off temporarily

 --------------------------------------------------------------

                    Orbital Energies (a.u.)
 --------------------------------------------------------------

 Alpha MOs
 -- Occupied --
-26.279 -11.308  -1.589  -0.958  -0.697  -0.697  -0.677  -0.533
 -0.533
 -- Virtual --
  0.040   0.072   0.072   0.098   0.151   0.151   0.182   0.291
  0.291   0.293   0.343   0.378   0.378   0.384   0.532   0.560
  0.560   0.751   0.829   0.829   0.853   1.066   1.272   1.272
  1.579   1.641   1.641   1.690   1.774   1.775   1.953   1.965
  1.966   2.116   2.323   2.431   2.432   2.752   2.772   2.772
  2.856   2.857   3.188   3.496   4.011   4.013   4.285   4.285
  4.573   4.574   5.299   6.967   6.967   7.254  25.037  68.771
 --------------------------------------------------------------

          Ground-State Mulliken Net Atomic Charges

     Atom                 Charge (a.u.)
  ----------------------------------------
      1 C                    -0.136139
      2 F                    -0.245556
      3 H                     0.127233
      4 H                     0.127231
      5 H                     0.127232
  ----------------------------------------
  Sum of atomic charges =    -0.000000

 -----------------------------------------------------------------
                    Cartesian Multipole Moments
 -----------------------------------------------------------------
    Charge (ESU x 10^10)
                 0.0000
    Dipole Moment (Debye)
         X       2.2359      Y      -0.0003      Z      -0.0000
       Tot       2.2359
    Quadrupole Moments (Debye-Ang)
        XX     -12.6729     XY      -0.0022     YY     -11.7453
        XZ       0.0000     YZ       0.0000     ZZ     -11.7537
    Octopole Moments (Debye-Ang^2)
       XXX      -3.4678    XXY      -0.0038    XYY      -1.0394
       YYY       0.6402    XXZ       0.0000    XYZ       0.0000
       YYZ      -0.0043    XZZ      -1.0465    YZZ      -0.6413
       ZZZ       0.0042
    Hexadecapole Moments (Debye-Ang^3)
      XXXX     -51.4091   XXXY      -0.0057   XXYY     -11.1956
      XYYY       0.7194   YYYY     -16.3707   XXXZ       0.0000
      XXYZ       0.0000   XYYZ      -0.0048   YYYZ       0.0001
      XXZZ     -11.1987   XYZZ      -0.7215   YYZZ      -5.4559
      XZZZ       0.0048   YZZZ       0.0000   ZZZZ     -16.3694
 -----------------------------------------------------------------
 Mayer SCF Bond Order, atomic valence on the diagonal:

            1           2           3           4           5
    1   3.8213264   0.8523012   0.9896121   0.9896136   0.9897995
    2   0.8523012   0.7418535  -0.0368158  -0.0368159  -0.0368160
    3   0.9896121  -0.0368158   0.9158327  -0.0185394  -0.0184241
    4   0.9896136  -0.0368159  -0.0185394   0.9158331  -0.0184252
    5   0.9897995  -0.0368160  -0.0184241  -0.0184252   0.9161342


 JobOver = TRUE
Archival summary:
1\1\qciep03\SP\HF\BasisUnspecified\113\jcartus\ThuFeb112:09:422018ThuFeb112:09:422018\0\\#,HF,BasisUnspecified,\\0,1\C\H,1,1.08679\H,1,1.08681,2,109.668\H,1,1.08696,2,109.86,3,120.841,0\F,1,1.38063,2,109.162,3,-119.553,0\\HF=-139.082933\\@

 Total job time:  4.77s(wall), 4.29s(cpu) 
 Thu Feb  1 12:09:42 2018

        *************************************************************
        *                                                           *
        *  Thank you very much for using Q-Chem.  Have a nice day.  *
        *                                                           *
        *************************************************************


*** MISSION COMPLETED -- STARFLEET OUT ***

0 sent ACK to 0 
now end server 0 ... 
