Process 0 of 1 is on qciep03 - thread support 0
initial socket setup ...start
initial socket setup ...done 
now start server 0 ... 
qciep03.tugraz.at 127.0.1
Q-Chem Developer Version! Running on 127.0.1.*
                  Welcome to Q-Chem
     A Quantum Leap Into The Future Of Chemistry


 Q-Chem 5.0, Q-Chem, Inc., Pleasanton, CA (2017)

 Yihan Shao,  Zhengting Gan,  E. Epifanovsky,  A. T. B. Gilbert,  M. Wormit,  
 J. Kussmann,  A. W. Lange,  A. Behn,  Jia Deng,  Xintian Feng,  D. Ghosh,  
 M. Goldey,  P. R. Horn,  L. D. Jacobson,  I. Kaliman,  T. Kus,  A. Landau,  
 Jie Liu,  E. I. Proynov,  R. M. Richard,  R. P. Steele,  E. J. Sundstrom,  
 H. L. Woodcock III,  P. M. Zimmerman,  D. Zuev,  B. Albrecht,  E. Alguire,  
 S. A. Baeppler,  D. Barton,  Z. Benda,  Y. A. Bernard,  E. J. Berquist,  
 K. B. Bravaya,  H. Burton,  D. Casanova,  Chun-Min Chang,  Yunqing Chen,  
 A. Chien,  K. D. Closser,  M. P. Coons,  S. Dasgupta,  A. L. Dempwolff,  
 M. Diedenhofen,  Hainam Do,  R. G. Edgar,  Po-Tung Fang,  S. Fatehi,  
 Qingguo Feng,  J. Fosso-Tande,  Qinghui Ge,  A. Ghysels,  G. Gidofalvi,  
 J. Gomes,  J. Gonthier,  A. Gunina,  M. W. D. Hanson-Heine,  
 P. H. P. Harbach,  A. W. Hauser,  J. E. Herr,  E. G. Hohenstein,  
 Z. C. Holden,  Kerwin Hui,  T.-C. Jagau,  Hyunjun Ji,  B. Kaduk,  
 K. Khistyaev,  Jaehoon Kim,  P. Klunzinger,  K. Koh,  D. Kosenkov,  
 L. Koulias,  T. Kowalczyk,  C. M. Krauter,  A. Kunitsa,  Ka Un Lao,  
 A. Laurent,  K. V. Lawler,  Joonho Lee,  D. Lefrancois,  S. Lehtola,  
 D. S. Levine,  Yi-Pei Li,  You-Sheng Lin,  Fenglai Liu,  E. Livshits,  
 A. Luenser,  P. Manohar,  E. Mansoor,  S. F. Manzer,  Shan-Ping Mao,  
 Yuezhi Mao,  N. Mardirossian,  A. V. Marenich,  T. Markovich,  
 L. A. Martinez-Martinez,  S. A. Maurer,  N. J. Mayhall,  S. C. McKenzie,  
 J.-M. Mewes,  A. F. Morrison,  J. W. Mullinax,  K. Nanda,  
 T. S. Nguyen-Beck,  R. Olivares-Amaya,  J. A. Parkhill,  T. M. Perrine,  
 F. Plasser,  S. Prager,  A. Prociuk,  E. Ramos,  D. R. Rehn,  F. Rob,  
 M. Schneider,  N. Sergueev,  S. M. Sharada,  S. Sharma,  D. W. Small,  
 T. Stauch,  T. Stein,  Yu-Chuan Su,  A. J. W. Thom,  A. Tkatchenko,  
 T. Tsuchimochi,  L. Vogt,  O. Vydrov,  M. A. Watson,  J. Wenzel,  
 M. de Wergifosse,  T. A. Wesolowski,  A. White,  J. Witte,  A. Yamada,  
 Jun Yang,  K. Yao,  S. Yeganeh,  S. R. Yost,  Zhi-Qiang You,  A. Zech,  
 Igor Ying Zhang,  Xing Zhang,  Yan Zhao,  Ying Zhu,  B. R. Brooks,  
 G. K. L. Chan,  C. J. Cramer,  M. S. Gordon,  W. J. Hehre,  A. Klamt,  
 M. W. Schmidt,  C. D. Sherrill,  D. G. Truhlar,  A. Aspuru-Guzik,  R. Baer,  
 A. T. Bell,  N. A. Besley,  Jeng-Da Chai,  R. A. DiStasio Jr.,  A. Dreuw,  
 B. D. Dunietz,  T. R. Furlani,  Chao-Ping Hsu,  Yousung Jung,  Jing Kong,  
 D. S. Lambrecht,  WanZhen Liang,  C. Ochsenfeld,  V. A. Rassolov,  
 L. V. Slipchenko,  J. E. Subotnik,  T. Van Voorhis,  J. M. Herbert,  
 A. I. Krylov,  P. M. W. Gill,  M. Head-Gordon

 Contributors to earlier versions of Q-Chem not listed above: 
 R. D. Adamson,  B. Austin,  J. Baker,  G. J. O. Beran,  K. Brandhorst,  
 S. T. Brown,  E. F. C. Byrd,  A. K. Chakraborty,  C.-L. Cheng,  
 Siu Hung Chien,  D. M. Chipman,  D. L. Crittenden,  H. Dachsel,  
 R. J. Doerksen,  A. D. Dutoi,  L. Fusti-Molnar,  W. A. Goddard III,  
 A. Golubeva-Zadorozhnaya,  S. R. Gwaltney,  G. Hawkins,  A. Heyden,  
 S. Hirata,  G. Kedziora,  F. J. Keil,  C. Kelley,  Jihan Kim,  R. A. King,  
 R. Z. Khaliullin,  P. P. Korambath,  W. Kurlancheek,  A. M. Lee,  M. S. Lee,  
 S. V. Levchenko,  Ching Yeh Lin,  D. Liotard,  R. C. Lochan,  I. Lotan,  
 P. E. Maslen,  N. Nair,  D. P. O'Neill,  D. Neuhauser,  E. Neuscamman,  
 C. M. Oana,  R. Olson,  B. Peters,  R. Peverati,  P. A. Pieniazek,  
 Y. M. Rhee,  J. Ritchie,  M. A. Rohrdanz,  E. Rosta,  N. J. Russ,  
 H. F. Schaefer III,  N. E. Schultz,  N. Shenvi,  A. C. Simmonett,  A. Sodt,  
 D. Stuck,  K. S. Thanthiriwatte,  V. Vanovschi,  Tao Wang,  A. Warshel,  
 C. F. Williams,  Q. Wu,  X. Xu,  W. Zhang

 Please cite Q-Chem as follows:
 Y. Shao et al., Mol. Phys. 113, 184-215 (2015)
 DOI: 10.1080/00268976.2014.952696

 Q-Chem 5.0.2 for Intel X86 EM64T Linux

 Parts of Q-Chem use Armadillo 5.200.1 (Boston Tea Smuggler).
 http://arma.sourceforge.net/

 Q-Chem begins on Thu Feb  1 12:20:50 2018  


Host: 0

     Scratch files written to /home/jcartus/scratch/14_bromomethane-formaldehyde.dir//
 Using version located at /usr/local/qchem/bin/qchem

 Parallel job on  1  processors

Total Memory Limit in MB = 2000
Mega-Array Size in MB = 192

Checking the input file for inconsistencies... 	...done.
Finally everything over in PARseQInput

--------------------------------------------------------------
User input:
--------------------------------------------------------------
$rem
SCF_PRINT                     1
BASIS                         6-311++g**
SCF_SAVE_MATRICES             1
SCF_CONVERGENCE               5
SCF_FINAL_PRINT               1
METHOD                        hf
JOBTYPE                       sp
$end

$molecule
0 1
C    0.081577546    -0.079576968    -0.122248507
Br    1.796548323    0.3971285    0.629679005
H    0.013255521    -1.160016154    -0.156779811
H    -0.692267287    0.331402893    0.514488442
H    0.018180933    0.339827727    -1.118895585
O    4.855012535    0.847915867    1.349033039
C    5.32441412    0.241999249    0.411201439
H    6.411534668    0.146524254    0.26874794
H    4.686070972    -0.241736004    -0.342833789
$end


--------------------------------------------------------------
 ----------------------------------------------------------------
             Standard Nuclear Orientation (Angstroms)
    I     Atom           X                Y                Z
 ----------------------------------------------------------------
    1      C       2.4259572319    -0.4355036688     0.0001956316
    2      Br      0.5930770359     0.1763116351    -0.0000758155
    3      H       2.5861770524    -1.0317039090    -0.8897953950
    4      H       3.0720868545     0.4337992078    -0.0016025373
    5      H       2.5869497117    -1.0286159125     0.8921172170
    6      O      -2.5603890302     0.5376072666     0.0001452293
    7      C      -2.8498469903    -0.6384943298    -0.0000289151
    8      H      -3.8969088673    -0.9774642777     0.0005712536
    9      H      -2.0795502167    -1.4237924782    -0.0007991292
 ----------------------------------------------------------------
 Molecular Point Group                 C1    NOp =  1
 Largest Abelian Subgroup              C1    NOp =  1
 Nuclear Repulsion Energy =   223.0566378798 hartrees
 There are       30 alpha and       30 beta electrons
 Requested basis set is 6-311++G(d,p)
 There are 62 shells and 149 basis functions

 Total QAlloc Memory Limit   2000 MB
 Mega-Array Size       188 MB
 MEM_STATIC part       192 MB

finished with qalloc call

                       Distance Matrix (Angstroms)
             C (  1)   Br(  2)   H (  3)   H (  4)   H (  5)   O (  6)
   Br(  2)  1.932296
   H (  3)  1.083148  2.494664
   H (  4)  1.083132  2.492347  1.781206
   H (  5)  1.083155  2.494672  1.781915  1.781222
   O (  6)  5.080413  3.174096  5.453611  5.633433  5.453784
   C (  7)  5.279708  3.538027  5.522378  6.018232  5.523303  1.211198
   H (  8)  6.346051  4.635857  6.544165  7.110455  6.545066  2.020328
   H (  9)  4.612625  3.115007  4.765822  5.476314  4.767566  2.019479
             C (  7)   H (  8)
   H (  8)  1.100563
   H (  9)  1.100023  1.871364

 Job number = 2, Threshold = 1.00E-08
Integral type ranges set in mkLRange.C for JobNum: 2  <1-21|1-21>
Symmetry turned off temporarily
 Using the largest function pair in Schwarz integrals
Total number of integrals generated =          130499
Symmetry turned back on
 A cutoff of  1.0D-08 yielded   1577 shell pairs
 There are      9136 function pairs (      9857 Cartesian)
 Job number = 11, Threshold = 1.00E-08
Integral type ranges set in mkLRange.C for JobNum: 11  <1-21|22-22>
Total number of integrals generated =           88029
 Smallest overlap matrix eigenvalue = 2.80E-04
 Multipole matrices computed through 2nd order

 Scale SEOQF with 1.000000e-01/1.000000e-01/1.000000e-01

 Standard Electronic Orientation quadrupole field applied
 Nucleus-field energy     =     0.0000000075 hartrees
 ENuRep (before)= 223.0566378798
 ENucField = 0.0000000075
 ENuRep (after) = 223.0566378873
 Guess from superposition of atomic densities
 Warning:  Energy on first SCF cycle will be non-variational
 SAD guess density has 60.000000 electrons

 ==================================================
    GEN_SCFMAN: A general SCF calculation manager  
                                                   
    Authors:                                       
        -- Eric Jon Sundstrom 2008-2014            
        -- Paul Horn 2010-2015                     
        -- Yuezhi Mao 2012-                        
        -- Dmitri Zuev 2014                        
        -- Alec White 2015-                        
        -- David Stuck 2015                        
        -- Shaama M.S. 2015                        
        -- Shane Yost 2015-                         
        -- Joonho Lee 2016-                        
        -- David Small 2016-                       
        -- Daniel Levine 2016-                     
        -- Susi Lehtola 2017-                      
        -- Hugh Burton 2017-                       
 ==================================================
 Hartree-Fock
Finding J and K together
 Job number = 22, Threshold = 1.00E-08
Integral type ranges set in mkLRange.C for JobNum: 22  <1-21|1-21>
 MakeJK  time:  CPU       4.49 s  wall       4.82 s
 HF Exchange:              -109.79678705964788
 One-Electron:             -4233.05516965366041
 Total Coulomb:            1393.48846270131412
 Nuclear repulsion:        223.05663788733764
 A restricted SCF calculation will be
 performed using DIIS
 SCF converges when DIIS error is below 1.0e-05
 ---------------------------------------
  Cycle       Energy         DIIS error
 ---------------------------------------
Finding J and K together
 Job number = 22, Threshold = 1.00E-08
Integral type ranges set in mkLRange.C for JobNum: 22  <1-21|1-21>
 MakeJK  time:  CPU       9.31 s  wall      10.59 s
 HF Exchange:              -109.97782543001486
 One-Electron:             -4236.95683254905725
 Total Coulomb:            1398.07655449539425
 Nuclear repulsion:        223.05663788733764
    1   -2726.3068561247      4.48e-02  
Finding J and K together
 Job number = 22, Threshold = 1.00E-08
Integral type ranges set in mkLRange.C for JobNum: 22  <1-21|1-21>
 MakeJK  time:  CPU       9.33 s  wall      10.94 s
 HF Exchange:              -109.86027439309133
 One-Electron:             -4235.21290728077747
 Total Coulomb:            1396.16556917778325
 Nuclear repulsion:        223.05663788733764
    2   -2725.8014655963      5.71e-03  
Finding J and K together
 Job number = 22, Threshold = 1.00E-08
Integral type ranges set in mkLRange.C for JobNum: 22  <1-21|1-21>
 MakeJK  time:  CPU       9.28 s  wall       9.60 s
 HF Exchange:              -109.98705735130463
 One-Electron:             -4236.41165908891344
 Total Coulomb:            1397.44822050103699
 Nuclear repulsion:        223.05663788733764
    3   -2725.8509746087      4.65e-03  
Finding J and K together
 Job number = 22, Threshold = 1.00E-08
Integral type ranges set in mkLRange.C for JobNum: 22  <1-21|1-21>
 MakeJK  time:  CPU       9.30 s  wall      10.17 s
 HF Exchange:              -109.97209399502189
 One-Electron:             -4236.22631189205458
 Total Coulomb:            1397.24670362553115
 Nuclear repulsion:        223.05663788733764
    4   -2725.8938580518      5.26e-04  
Finding J and K together
 Job number = 22, Threshold = 1.00E-08
Integral type ranges set in mkLRange.C for JobNum: 22  <1-21|1-21>
 MakeJK  time:  CPU       9.31 s  wall      10.85 s
 HF Exchange:              -109.98088972999857
 One-Electron:             -4236.26736796061959
 Total Coulomb:            1397.29636407593466
 Nuclear repulsion:        223.05663788733764
    5   -2725.8950643742      2.02e-04  
Finding J and K together
 Job number = 22, Threshold = 1.00E-08
Integral type ranges set in mkLRange.C for JobNum: 22  <1-21|1-21>
 MakeJK  time:  CPU       9.43 s  wall       9.58 s
 HF Exchange:              -109.98048923231107
 One-Electron:             -4236.26537062734133
 Total Coulomb:            1397.29392220377122
 Nuclear repulsion:        223.05663788733764
    6   -2725.8952557273      7.36e-05  
Finding J and K together
 Job number = 22, Threshold = 1.00E-08
Integral type ranges set in mkLRange.C for JobNum: 22  <1-21|1-21>
 MakeJK  time:  CPU       9.50 s  wall      10.33 s
 HF Exchange:              -109.98001061350797
 One-Electron:             -4236.25245544801874
 Total Coulomb:            1397.28051960550329
 Nuclear repulsion:        223.05663788733764
    7   -2725.8952997685      3.82e-05  
Finding J and K together
 Job number = 22, Threshold = 1.00E-08
Integral type ranges set in mkLRange.C for JobNum: 22  <1-21|1-21>
 MakeJK  time:  CPU       9.16 s  wall      10.15 s
 HF Exchange:              -109.98035257964791
 One-Electron:             -4236.25958996332156
 Total Coulomb:            1397.28799496407987
 Nuclear repulsion:        223.05663788733764
    8   -2725.8953085687      1.41e-05  
    9   -2725.8953096916      3.61e-06  Convergence criterion met
 ---------------------------------------
 SCF time:   CPU 80.01s  wall 88.00s 
 Total energy in the final basis set =    -2725.8953096916
 HF Exchange:              -109.98035257964791
 One-Electron:             -4236.25958996332156
 Total Coulomb:            1397.28799496407987
 Nuclear repulsion:        223.05663788733764
Wall  1 = 88
Clock 1 = 80.12379455566406
 ==================================================
                  Done GEN_SCFMAN                  
 ==================================================

Symmetry turned off temporarily

 --------------------------------------------------------------

                    Orbital Energies (a.u.)
 --------------------------------------------------------------

 Alpha MOs
 -- Occupied --
******* -65.141 -58.501 -58.499 -58.499 -20.574 -11.340 -11.282
 -9.821  -7.435  -7.426  -7.426  -3.174  -3.170  -3.170  -3.160
 -3.160  -1.402  -1.058  -0.893  -0.868  -0.691  -0.648  -0.608
 -0.607  -0.531  -0.501  -0.439  -0.395  -0.395
 -- Virtual --
  0.038   0.047   0.069   0.069   0.083   0.084   0.105   0.134
  0.142   0.148   0.153   0.161   0.164   0.183   0.184   0.198
  0.211   0.217   0.231   0.278   0.284   0.290   0.332   0.336
  0.352   0.389   0.404   0.457   0.523   0.529   0.531   0.585
  0.596   0.614   0.646   0.671   0.717   0.753   0.796   0.806
  0.827   0.833   0.841   0.849   0.869   0.878   0.918   0.920
  1.033   1.069   1.201   1.248   1.302   1.331   1.347   1.350
  1.435   1.520   1.674   1.687   1.698   1.731   1.792   1.796
  1.919   1.944   1.971   1.975   2.024   2.027   2.127   2.229
  2.331   2.339   2.473   2.487   2.494   2.564   2.745   2.780
  2.787   2.797   2.799   2.811   2.885   2.886   2.962   3.038
  3.193   3.256   3.303   3.494   3.728   3.814   3.882   4.105
  4.115   4.116   4.303   4.576   4.585   4.682   4.699   4.954
  5.550   5.667   6.232   7.222   8.253   8.271   8.396  25.049
 25.053  49.488  51.627 293.936 293.954 294.1091028.422
 --------------------------------------------------------------

          Ground-State Mulliken Net Atomic Charges

     Atom                 Charge (a.u.)
  ----------------------------------------
      1 C                    -0.410862
      2 Br                   -0.063256
      3 H                     0.149066
      4 H                     0.154871
      5 H                     0.149067
      6 O                    -0.287865
      7 C                     0.109713
      8 H                     0.102906
      9 H                     0.096361
  ----------------------------------------
  Sum of atomic charges =    -0.000000

 -----------------------------------------------------------------
                    Cartesian Multipole Moments
 -----------------------------------------------------------------
    Charge (ESU x 10^10)
                -0.0000
    Dipole Moment (Debye)
         X       1.1086      Y      -3.4214      Z      -0.0001
       Tot       3.5965
    Quadrupole Moments (Debye-Ang)
        XX     -26.7673     XY       6.2236     YY     -37.2744
        XZ       0.0017     YZ      -0.0003     ZZ     -37.9159
    Octopole Moments (Debye-Ang^2)
       XXX       6.6426    XXY     -21.8215    XYY       3.6347
       YYY       3.3156    XXZ      -0.0018    XYZ      -0.0001
       YYZ      -0.0050    XZZ       3.8844    YZZ       0.5723
       ZZZ       0.0036
    Hexadecapole Moments (Debye-Ang^3)
      XXXX    -778.7306   XXXY      66.1162   XXYY    -157.9708
      XYYY       3.5380   YYYY     -95.0574   XXXZ      -0.0042
      XXYZ      -0.0117   XYYZ      -0.0087   YYYZ       0.0068
      XXZZ    -153.2302   XYZZ      -2.6723   YYZZ     -23.0165
      XZZZ       0.0116   YZZZ      -0.0035   ZZZZ     -48.2873
 -----------------------------------------------------------------
 Mayer SCF Bond Order, atomic valence on the diagonal:

            1           2           3           4           5           6
    1   3.7939502   0.8329999   0.9830983   0.9856249   0.9831264   0.0053419
    2   0.8329999   0.7728569  -0.0193173  -0.0225218  -0.0193274  -0.0161514
    3   0.9830983  -0.0193173   0.9197526  -0.0220044  -0.0222606  -0.0001373
    4   0.9856249  -0.0225218  -0.0220044   0.9188281  -0.0220105  -0.0005885
    5   0.9831264  -0.0193274  -0.0222606  -0.0220105   0.9197665  -0.0001360
    6   0.0053419  -0.0161514  -0.0001373  -0.0005885  -0.0001360   1.8949942
    7   0.0031287   0.0047635   0.0003932   0.0006946   0.0003923   1.9131117
    8   0.0000720  -0.0020441   0.0000238   0.0000048   0.0000237  -0.0096929
    9   0.0005582   0.0144555  -0.0000430  -0.0003710  -0.0000414   0.0032468
            7           8           9
    1   0.0031287   0.0000720   0.0005582
    2   0.0047635  -0.0020441   0.0144555
    3   0.0003932   0.0000238  -0.0000430
    4   0.0006946   0.0000048  -0.0003710
    5   0.0003923   0.0000237  -0.0000414
    6   1.9131117  -0.0096929   0.0032468
    7   3.8168801   0.9522904   0.9421057
    8   0.9522904   0.9199368  -0.0207408
    9   0.9421057  -0.0207408   0.9391699


 JobOver = TRUE
Archival summary:
1\1\qciep03\SP\HF\BasisUnspecified\r1125\jcartus\ThuFeb112:22:192018ThuFeb112:22:192018\0\\#,HF,BasisUnspecified,\\0,1\Br\C,1,1.9323\H,2,1.08313,1,108.163\H,2,1.08315,1,108.329,3,-119.942,0\H,2,1.08316,1,108.329,3,119.943,0\H,1,3.11501,2,130.632,3,179.887,0\C,6,1.10002,1,103.538,2,179.956,0\H,7,1.10056,6,116.509,1,-179.962,0\O,7,1.2112,6,121.726,1,0.0384612,0\\HF=-2725.89531\\@

 Total job time:  88.87s(wall), 80.62s(cpu) 
 Thu Feb  1 12:22:19 2018

        *************************************************************
        *                                                           *
        *  Thank you very much for using Q-Chem.  Have a nice day.  *
        *                                                           *
        *************************************************************


*** MISSION COMPLETED -- STARFLEET OUT ***

0 sent ACK to 0 
now end server 0 ... 
