Process 0 of 1 is on qciep03 - thread support 0
initial socket setup ...start
initial socket setup ...done 
now start server 0 ... 
qciep03.tugraz.at 127.0.1
Q-Chem Developer Version! Running on 127.0.1.*
                  Welcome to Q-Chem
     A Quantum Leap Into The Future Of Chemistry


 Q-Chem 5.0, Q-Chem, Inc., Pleasanton, CA (2017)

 Yihan Shao,  Zhengting Gan,  E. Epifanovsky,  A. T. B. Gilbert,  M. Wormit,  
 J. Kussmann,  A. W. Lange,  A. Behn,  Jia Deng,  Xintian Feng,  D. Ghosh,  
 M. Goldey,  P. R. Horn,  L. D. Jacobson,  I. Kaliman,  T. Kus,  A. Landau,  
 Jie Liu,  E. I. Proynov,  R. M. Richard,  R. P. Steele,  E. J. Sundstrom,  
 H. L. Woodcock III,  P. M. Zimmerman,  D. Zuev,  B. Albrecht,  E. Alguire,  
 S. A. Baeppler,  D. Barton,  Z. Benda,  Y. A. Bernard,  E. J. Berquist,  
 K. B. Bravaya,  H. Burton,  D. Casanova,  Chun-Min Chang,  Yunqing Chen,  
 A. Chien,  K. D. Closser,  M. P. Coons,  S. Dasgupta,  A. L. Dempwolff,  
 M. Diedenhofen,  Hainam Do,  R. G. Edgar,  Po-Tung Fang,  S. Fatehi,  
 Qingguo Feng,  J. Fosso-Tande,  Qinghui Ge,  A. Ghysels,  G. Gidofalvi,  
 J. Gomes,  J. Gonthier,  A. Gunina,  M. W. D. Hanson-Heine,  
 P. H. P. Harbach,  A. W. Hauser,  J. E. Herr,  E. G. Hohenstein,  
 Z. C. Holden,  Kerwin Hui,  T.-C. Jagau,  Hyunjun Ji,  B. Kaduk,  
 K. Khistyaev,  Jaehoon Kim,  P. Klunzinger,  K. Koh,  D. Kosenkov,  
 L. Koulias,  T. Kowalczyk,  C. M. Krauter,  A. Kunitsa,  Ka Un Lao,  
 A. Laurent,  K. V. Lawler,  Joonho Lee,  D. Lefrancois,  S. Lehtola,  
 D. S. Levine,  Yi-Pei Li,  You-Sheng Lin,  Fenglai Liu,  E. Livshits,  
 A. Luenser,  P. Manohar,  E. Mansoor,  S. F. Manzer,  Shan-Ping Mao,  
 Yuezhi Mao,  N. Mardirossian,  A. V. Marenich,  T. Markovich,  
 L. A. Martinez-Martinez,  S. A. Maurer,  N. J. Mayhall,  S. C. McKenzie,  
 J.-M. Mewes,  A. F. Morrison,  J. W. Mullinax,  K. Nanda,  
 T. S. Nguyen-Beck,  R. Olivares-Amaya,  J. A. Parkhill,  T. M. Perrine,  
 F. Plasser,  S. Prager,  A. Prociuk,  E. Ramos,  D. R. Rehn,  F. Rob,  
 M. Schneider,  N. Sergueev,  S. M. Sharada,  S. Sharma,  D. W. Small,  
 T. Stauch,  T. Stein,  Yu-Chuan Su,  A. J. W. Thom,  A. Tkatchenko,  
 T. Tsuchimochi,  L. Vogt,  O. Vydrov,  M. A. Watson,  J. Wenzel,  
 M. de Wergifosse,  T. A. Wesolowski,  A. White,  J. Witte,  A. Yamada,  
 Jun Yang,  K. Yao,  S. Yeganeh,  S. R. Yost,  Zhi-Qiang You,  A. Zech,  
 Igor Ying Zhang,  Xing Zhang,  Yan Zhao,  Ying Zhu,  B. R. Brooks,  
 G. K. L. Chan,  C. J. Cramer,  M. S. Gordon,  W. J. Hehre,  A. Klamt,  
 M. W. Schmidt,  C. D. Sherrill,  D. G. Truhlar,  A. Aspuru-Guzik,  R. Baer,  
 A. T. Bell,  N. A. Besley,  Jeng-Da Chai,  R. A. DiStasio Jr.,  A. Dreuw,  
 B. D. Dunietz,  T. R. Furlani,  Chao-Ping Hsu,  Yousung Jung,  Jing Kong,  
 D. S. Lambrecht,  WanZhen Liang,  C. Ochsenfeld,  V. A. Rassolov,  
 L. V. Slipchenko,  J. E. Subotnik,  T. Van Voorhis,  J. M. Herbert,  
 A. I. Krylov,  P. M. W. Gill,  M. Head-Gordon

 Contributors to earlier versions of Q-Chem not listed above: 
 R. D. Adamson,  B. Austin,  J. Baker,  G. J. O. Beran,  K. Brandhorst,  
 S. T. Brown,  E. F. C. Byrd,  A. K. Chakraborty,  C.-L. Cheng,  
 Siu Hung Chien,  D. M. Chipman,  D. L. Crittenden,  H. Dachsel,  
 R. J. Doerksen,  A. D. Dutoi,  L. Fusti-Molnar,  W. A. Goddard III,  
 A. Golubeva-Zadorozhnaya,  S. R. Gwaltney,  G. Hawkins,  A. Heyden,  
 S. Hirata,  G. Kedziora,  F. J. Keil,  C. Kelley,  Jihan Kim,  R. A. King,  
 R. Z. Khaliullin,  P. P. Korambath,  W. Kurlancheek,  A. M. Lee,  M. S. Lee,  
 S. V. Levchenko,  Ching Yeh Lin,  D. Liotard,  R. C. Lochan,  I. Lotan,  
 P. E. Maslen,  N. Nair,  D. P. O'Neill,  D. Neuhauser,  E. Neuscamman,  
 C. M. Oana,  R. Olson,  B. Peters,  R. Peverati,  P. A. Pieniazek,  
 Y. M. Rhee,  J. Ritchie,  M. A. Rohrdanz,  E. Rosta,  N. J. Russ,  
 H. F. Schaefer III,  N. E. Schultz,  N. Shenvi,  A. C. Simmonett,  A. Sodt,  
 D. Stuck,  K. S. Thanthiriwatte,  V. Vanovschi,  Tao Wang,  A. Warshel,  
 C. F. Williams,  Q. Wu,  X. Xu,  W. Zhang

 Please cite Q-Chem as follows:
 Y. Shao et al., Mol. Phys. 113, 184-215 (2015)
 DOI: 10.1080/00268976.2014.952696

 Q-Chem 5.0.2 for Intel X86 EM64T Linux

 Parts of Q-Chem use Armadillo 5.200.1 (Boston Tea Smuggler).
 http://arma.sourceforge.net/

 Q-Chem begins on Sat Apr 21 18:38:18 2018  


Host: 0

     Scratch files written to /home/jcartus/scratch/qchem16043//
 Using version located at /usr/local/qchem/bin/qchem

 Parallel job on  1  processors
Symmetry disabled for AIMD jobs.

Total Memory Limit in MB = 2000
Mega-Array Size in MB = 192

Checking the input file for inconsistencies... 	...done.
Finally everything over in PARseQInput

--------------------------------------------------------------
User input:
--------------------------------------------------------------
$rem
   JOBTYPE              aimd
   AIMD_METHOD          bomd
   METHOD               hf
   BASIS                6-31g*
   TIME_STEP            20        (20 a.u. = 0.48 fs) 
   AIMD_STEPS           200
   AIMD_INIT_VELOC      thermal
   AIMD_TEMP            298
$end





$molecule
   0 1
   C       -2.83034        2.46352        0.00000
   C       -1.31827        2.46353       -0.00000
   H       -3.21474        3.47897        0.13466
   H       -3.21474        1.83919        0.81207
   H       -3.21474        2.07242       -0.94673
   H       -0.93387        2.85463        0.94673
   H       -0.93387        3.08786       -0.81207
   H       -0.93387        1.44808       -0.13466
$end


--------------------------------------------------------------
 ----------------------------------------------------------------
             Standard Nuclear Orientation (Angstroms)
    I     Atom           X                Y                Z
 ----------------------------------------------------------------
    1      C      -2.8303400000     2.4635200000     0.0000000000
    2      C      -1.3182700000     2.4635300000    -0.0000000000
    3      H      -3.2147400000     3.4789700000     0.1346600000
    4      H      -3.2147400000     1.8391900000     0.8120700000
    5      H      -3.2147400000     2.0724200000    -0.9467300000
    6      H      -0.9338700000     2.8546300000     0.9467300000
    7      H      -0.9338700000     3.0878600000    -0.8120700000
    8      H      -0.9338700000     1.4480800000    -0.1346600000
 ----------------------------------------------------------------
 Nuclear Repulsion Energy =    42.4266248051 hartrees
 There are        9 alpha and        9 beta electrons
 Requested basis set is 6-31G(d)
 There are 20 shells and 42 basis functions

 Total QAlloc Memory Limit   2000 MB
 Mega-Array Size       188 MB
 MEM_STATIC part       192 MB

finished with qalloc call

                       Distance Matrix (Angstroms)
             C (  1)   C (  2)   H (  3)   H (  4)   H (  5)   H (  6)
   C (  2)  1.512070
   H (  3)  1.094091  2.155423
   H (  4)  1.094079  2.155425  1.774194
   H (  5)  1.094084  2.155426  1.774200  1.774197
   H (  6)  2.155426  1.094084  2.500325  2.500324  3.065846
   H (  7)  2.155425  1.094079  2.500327  3.065840  2.500324  1.774197
   H (  8)  2.155423  1.094091  3.065847  2.500327  2.500325  1.774200
             H (  7)
   H (  8)  1.774194

 Job number = 2, Threshold = 1.00E-11
Integral type ranges set in mkLRange.C for JobNum: 2  <1-21|1-21>
Symmetry turned off temporarily
 Using the largest function pair in Schwarz integrals
Total number of integrals generated =           13065
Symmetry turned back on
 A cutoff of  1.0D-11 yielded    210 shell pairs
 There are       957 function pairs
 Job number = 11, Threshold = 1.00E-11
Integral type ranges set in mkLRange.C for JobNum: 11  <1-21|22-22>
Total number of integrals generated =            7656
 Smallest overlap matrix eigenvalue = 7.99E-03
 Multipole matrices computed through 2nd order

 Scale SEOQF with 1.000000e-01/1.000000e-01/1.000000e+00

 Standard Electronic Orientation quadrupole field applied
 Nucleus-field energy     =     0.0000000079 hartrees
 ENuRep (before)= 42.4266248051
 ENucField = 0.0000000079
 ENuRep (after) = 42.4266248130
 Guess from superposition of atomic densities
 Warning:  Energy on first SCF cycle will be non-variational
 SAD guess density has 18.000000 electrons

 ==================================================
    GEN_SCFMAN: A general SCF calculation manager  
                                                   
    Authors:                                       
        -- Eric Jon Sundstrom 2008-2014            
        -- Paul Horn 2010-2015                     
        -- Yuezhi Mao 2012-                        
        -- Dmitri Zuev 2014                        
        -- Alec White 2015-                        
        -- David Stuck 2015                        
        -- Shaama M.S. 2015                        
        -- Shane Yost 2015-                         
        -- Joonho Lee 2016-                        
        -- David Small 2016-                       
        -- Daniel Levine 2016-                     
        -- Susi Lehtola 2017-                      
        -- Hugh Burton 2017-                       
 ==================================================
 Hartree-Fock
Finding J and K together
 Job number = 22, Threshold = 1.00E-11
Integral type ranges set in mkLRange.C for JobNum: 22  <1-21|1-21>
 MakeJK  time:  CPU       0.13 s  wall       0.13 s
 A restricted SCF calculation will be
 performed using DIIS
 SCF converges when DIIS error is below 1.0e-08
 ---------------------------------------
  Cycle       Energy         DIIS error
 ---------------------------------------
Finding J and K together
 Job number = 22, Threshold = 1.00E-11
Integral type ranges set in mkLRange.C for JobNum: 22  <1-21|1-21>
 MakeJK  time:  CPU       0.16 s  wall       0.16 s
    1     -79.6640466589      1.21e-01  
Finding J and K together
 Job number = 22, Threshold = 1.00E-11
Integral type ranges set in mkLRange.C for JobNum: 22  <1-21|1-21>
 MakeJK  time:  CPU       0.16 s  wall       0.16 s
    2     -79.2075453064      8.42e-03  
Finding J and K together
 Job number = 22, Threshold = 1.00E-11
Integral type ranges set in mkLRange.C for JobNum: 22  <1-21|1-21>
 MakeJK  time:  CPU       0.16 s  wall       0.16 s
    3     -79.2266322393      2.18e-03  
Finding J and K together
 Job number = 22, Threshold = 1.00E-11
Integral type ranges set in mkLRange.C for JobNum: 22  <1-21|1-21>
 MakeJK  time:  CPU       0.16 s  wall       0.16 s
    4     -79.2279644002      8.02e-04  
Finding J and K together
 Job number = 22, Threshold = 1.00E-11
Integral type ranges set in mkLRange.C for JobNum: 22  <1-21|1-21>
 MakeJK  time:  CPU       0.16 s  wall       0.16 s
    5     -79.2281235111      7.25e-05  
Finding J and K together
 Job number = 22, Threshold = 1.00E-11
Integral type ranges set in mkLRange.C for JobNum: 22  <1-21|1-21>
 MakeJK  time:  CPU       0.16 s  wall       0.16 s
    6     -79.2281259137      6.66e-06  
Finding J and K together
 Job number = 22, Threshold = 1.00E-11
Integral type ranges set in mkLRange.C for JobNum: 22  <1-21|1-21>
 MakeJK  time:  CPU       0.16 s  wall       0.16 s
    7     -79.2281259353      1.29e-06  
Finding J and K together
 Job number = 22, Threshold = 1.00E-11
Integral type ranges set in mkLRange.C for JobNum: 22  <1-21|1-21>
 MakeJK  time:  CPU       0.16 s  wall       0.16 s
    8     -79.2281259361      1.15e-07  
Finding J and K together
 Job number = 22, Threshold = 1.00E-11
Integral type ranges set in mkLRange.C for JobNum: 22  <1-21|1-21>
 MakeJK  time:  CPU       0.16 s  wall       0.16 s
    9     -79.2281259361      1.20e-08  
   10     -79.2281259361      9.73e-10  Convergence criterion met
 ---------------------------------------
 SCF time:   CPU 1.60s  wall 2.00s 
 Total energy in the final basis set =      -79.2281259361
Wall  1 = 2
Clock 1 = 1.5975179672
 ==================================================
                  Done GEN_SCFMAN                  
 ==================================================

Symmetry turned off temporarily

 --------------------------------------------------------------

                    Orbital Energies (a.u.)
 --------------------------------------------------------------

 Alpha MOs
 -- Occupied --
-11.212 -11.211  -1.021  -0.837  -0.599  -0.599  -0.509  -0.485
 -0.485
 -- Virtual --
  0.241   0.304   0.315   0.315   0.336   0.336   0.415   0.700
  0.747   0.747   0.845   0.845   0.953   1.150   1.150   1.196
  1.205   1.205   1.254   1.279   1.689   1.799   1.799   2.274
  2.306   2.306   2.618   2.618   2.666   2.666   2.951   4.582
  4.794
 --------------------------------------------------------------

          Ground-State Mulliken Net Atomic Charges

     Atom                 Charge (a.u.)
  ----------------------------------------
      1 C                    -0.470358
      2 C                    -0.470358
      3 H                     0.156783
      4 H                     0.156788
      5 H                     0.156786
      6 H                     0.156786
      7 H                     0.156788
      8 H                     0.156783
  ----------------------------------------
  Sum of atomic charges =    -0.000000

 -----------------------------------------------------------------
                    Cartesian Multipole Moments
 -----------------------------------------------------------------
    Charge (ESU x 10^10)
                 0.0000
    Dipole Moment (Debye)
         X       0.0000      Y      -0.0000      Z      -0.0000
       Tot       0.0000
    Quadrupole Moments (Debye-Ang)
        XX     -15.7689     XY       0.0000     YY     -14.9076
        XZ      -0.0000     YZ      -0.0000     ZZ     -14.9075
    Octopole Moments (Debye-Ang^2)
       XXX      98.1287    XXY     -38.8473    XYY      30.9231
       YYY    -110.1757    XXZ       0.0001    XYZ      -0.0000
       YYZ      -0.0000    XZZ      30.9228    YZZ     -36.7251
       ZZZ       0.0000
    Hexadecapole Moments (Debye-Ang^3)
      XXXX    -499.4460   XXXY     241.7430   XXYY    -179.0764
      XYYY     227.3872   YYYY    -571.8309   XXXZ      -0.0002
      XXYZ       0.0001   XYYZ      -0.4808   YYYZ      -0.0001
      XXZZ     -83.3743   XYZZ      77.3305   YYZZ    -100.1364
      XZZZ       0.4807   YZZZ      -0.0001   ZZZZ     -28.9895
 -----------------------------------------------------------------
drvman_main.C: 73: calling DrvMan  Calculating analytic gradient of the SCF energy
drvman.C : 218: Calculating analytic gradient of the SCF energy
drvman.C: 244: calling SCF_Grad for normal SCF gradient
 Job number = 111, Threshold = 1.00E-11
Integral type ranges set in mkLRange.C for JobNum: 11  <1-21|22-22>
Finding J and K together
 ML is being used
 Job number = 122, Threshold = 1.00E-11
Integral type ranges set in mkLRange.C for JobNum: 22  <1-21|1-21>
Total number of integrals generated =          464201
 MakeJK  time:  CPU       0.77 s  wall       0.76 s
 Gradient of SCF Energy
            1           2           3           4           5           6
    1   0.0107534  -0.0107534   0.0002342   0.0002357   0.0002350  -0.0002350
    2  -0.0000088   0.0000088   0.0064611  -0.0039675  -0.0024866   0.0024866
    3   0.0000015  -0.0000015   0.0008572   0.0051618  -0.0060204   0.0060204
            7           8
    1  -0.0002357  -0.0002342
    2   0.0039675  -0.0064611
    3  -0.0051618  -0.0008572
 Max gradient component =       1.075E-02
 RMS gradient           =       4.501E-03
drvman.C: 248: out of SCF_Grad for normal SCF gradient
 Gradient time:  CPU 0.78 s  wall 0.77 s
 ------------------------------------------------------------------------------
                     drvman        : Timing summary (seconds)
 ------------------------------------------------------------------------------
     job step          cpu (% of tot)      sys (% of tot)     wall (% of tot)
 ------------------------------------------------------------------------------
 ------------------------------------------------------------------------------
   Grand Totals     0.7840E+00          0.6000E-05          0.7741E+00
 ------------------------------------------------------------------------------
drvman_main.C: 77: out of DrvMan =======================================================
            AB INITIO MOLECULAR DYNAMICS
=======================================================
Created directory /home/jcartus/scratch/qchem16043/AIMD
AIMD will take 200 BOMD steps Velocity Verlet integration
Time step = 20.00000 a.u. ( = 0.48378 fs)
Total simulation time requested = 96.755 fs
Integral threshold = 10**(-11)
SCF convergence threshold = 10**(-8)
Generating viewable xyz trajectory,
 file (in Angstroms) at AIMD/View.xyz
Choosing nuclear velocities from Maxwell-Boltzmann
Velocities sampled from Maxwell-Boltzmann at T = 298.0 K
sqrt(kT/m) and (vx,vy,vz) for each atom:
  1   2.0771e-04   3.21e-04   3.78e-04   7.22e-05 
  2   2.0771e-04   3.50e-05   3.09e-04   2.00e-04 
  3   7.1671e-04   9.18e-04   2.43e-04   5.67e-05 
  4   7.1671e-04  -4.42e-04   1.19e-03   7.61e-04 
  5   7.1671e-04   5.57e-05   4.59e-04  -1.53e-04 
  6   7.1671e-04  -2.59e-04   4.36e-04   4.88e-04 
  7   7.1671e-04  -7.77e-04   1.51e-03   2.37e-04 
  8   7.1671e-04   9.32e-04  -3.18e-04   6.61e-05 
T(nuclear) = 0.01137208 a.u.
v(c.o.m.) = (  1.5650e-04,   3.9271e-04,   1.5754e-04)
T(c.o.m.) = 5.57407e-03 a.u.
kT/2 = 0.000472 a.u.
Tx   = 0.003510 a.u.
Ty   = 0.006537 a.u.
Tz   = 0.001325 a.u.
Mean velocities (a.u.):   9.8023e-05   5.2673e-04   2.1608e-04
Removing c.o.m. velocity
T(nuclear) = 0.01335321 a.u.
v(c.o.m.) = ( -3.8513e-20,   4.8648e-20,   1.2162e-20)
T(c.o.m.) = 1.09482e-34 a.u.
kT   = 0.000944 a.u. = 0.59 kcal/mol
Tx   = 0.004597 a.u. = 2.88 kcal/mol
Ty   = 0.007343 a.u. = 4.61 kcal/mol
Tz   = 0.001414 a.u. = 0.89 kcal/mol
Initial velocities in m/s
  1      5.9489e+02      5.5898e+02      5.0040e+01 
  2     -3.0615e+01      4.0645e+02      3.2958e+02 
  3      7.3178e+02     -2.6700e+03     -1.1603e+03 
  4     -2.2418e+03     -5.8887e+02      3.8128e+02 
  5     -1.1542e+03     -2.1984e+03     -1.6181e+03 
  6     -1.8416e+03     -2.2484e+03     -2.1713e+02 
  7     -2.9761e+03      1.0864e+02     -7.6610e+02 
  8      7.6313e+02     -3.8981e+03     -1.1397e+03 
----------------------------------------------------------------------------
       Nuclear coordinates (Angst) and velocities (a.u.)
----------------------------------------------------------------------------
             x        y        z            v_x         v_y        v_z
----------------------------------------------------------------------------
1      C   -2.8303   2.4635   0.0000     2.7193e-04   2.5551e-04   2.2874e-05
2      C   -1.3183   2.4635  -0.0000    -1.3994e-05   1.8579e-04   1.5065e-04
3      H   -3.2147   3.4790   0.1347     3.3450e-04  -1.2205e-03  -5.3039e-04
4      H   -3.2147   1.8392   0.8121    -1.0247e-03  -2.6917e-04   1.7429e-04
5      H   -3.2147   2.0724  -0.9467    -5.2758e-04  -1.0049e-03  -7.3962e-04
6      H   -0.9339   2.8546   0.9467    -8.4179e-04  -1.0277e-03  -9.9251e-05
7      H   -0.9339   3.0879  -0.8121    -1.3604e-03   4.9661e-05  -3.5018e-04
8      H   -0.9339   1.4481  -0.1347     3.4883e-04  -1.7818e-03  -5.2096e-04
----------------------------------------------------------------------------
Write nuclear velocities every 1 time steps

TIME STEP #1 (t = 0.000 a.u. = 0.00000 fs)
--------------------------------------
 Instantaneous Temperature = 351.4 K
 ----------------------------------------------------------------
             Standard Nuclear Orientation (Angstroms)
    I     Atom           X                Y                Z
 ----------------------------------------------------------------
    1      C      -2.8275140645     2.4662242372     0.0002420767
    2      C      -1.3183660821     2.4654962470     0.0015944351
    3      H      -3.2112133235     3.4656810529     0.1289972123
    4      H      -3.2255990133     1.8365697625     0.8136171916
    5      H      -3.2203372049     2.0619278140    -0.9542110263
    6      H      -0.9427655354     2.8436097239     0.9453327474
    7      H      -0.9482540184     3.0881570274    -0.8154788291
    8      H      -0.9301646409     1.4295942383    -0.1401242196
 ----------------------------------------------------------------
 Nuclear Repulsion Energy =    42.4099903483 hartrees
 There are        9 alpha and        9 beta electrons

                       Distance Matrix (Angstroms)
             C (  1)   C (  2)   H (  3)   H (  4)   H (  5)   H (  6)
   C (  2)  1.509149
   H (  3)  1.078294  2.144638
   H (  4)  1.102958  2.166210  1.767177
   H (  5)  1.108488  2.166547  1.773118  1.782142
   H (  6)  2.141937  1.083830  2.489826  2.498561  3.067022
   H (  7)  2.140986  1.091924  2.481037  3.067038  2.496949  1.777721
   H (  8)  2.166619  1.115293  3.069407  2.518784  2.511468  1.782643
             H (  7)
   H (  8)  1.790883

 Applying Cartesian multipole field
    Component          Value
    ---------          -----
     (2,0,0)        1.00000E-11
     (0,2,0)        2.00000E-11
     (0,0,2)       -3.00000E-10
 Nucleus-field energy     =     0.0000000079 hartrees
 ENuRep (before)= 42.4099903483
 ENucField = 0.0000000079
 ENuRep (after) = 42.4099903563
 Job number = 2, Threshold = 1.00E-11
Integral type ranges set in mkLRange.C for JobNum: 2  <1-21|1-21>
Symmetry turned off temporarily
Symmetry turned back on
 Job number = 11, Threshold = 1.00E-11
Integral type ranges set in mkLRange.C for JobNum: 11  <1-21|22-22>
 Smallest overlap matrix eigenvalue = 7.96E-03
 Multipole matrices computed through 2nd order
 Guess from superposition of atomic densities
 Warning:  Energy on first SCF cycle will be non-variational
 SAD guess density has 18.000000 electrons
 SCF convergence criterion is 10**(-8)
 A restricted Hartree-Fock SCF calculation will be
 performed using Pulay DIIS extrapolation
 SCF converges when DIIS error is below 1.0E-08
Finding J and K together
 Job number = 22, Threshold = 1.00E-11
Integral type ranges set in mkLRange.C for JobNum: 22  <1-21|1-21>
 MakeJK  time:  CPU       0.12 s  wall       0.12 s
Fock build time:  0.12 s (CPU) 0.12 s (wall)
DIIS Errors:  Max 8.54E-01 RMS 1.21E-01

Current DIIS subspace size = 1
REM_GRID_RESTART_DIIS = 0

 ---------------------------------------
  Cycle       Energy         DIIS Error
 ---------------------------------------
    1     -79.6572073389      1.21E-01  00000
Finding J and K together
 Job number = 22, Threshold = 1.00E-11
Integral type ranges set in mkLRange.C for JobNum: 22  <1-21|1-21>
 MakeJK  time:  CPU       0.16 s  wall       0.16 s
Fock build time:  0.16 s (CPU) 0.16 s (wall)
DIIS Errors:  Max 3.94E-02 RMS 8.40E-03

Current DIIS subspace size = 2
REM_GRID_RESTART_DIIS = 0

    2     -79.2065274478      8.40E-03  00000
Finding J and K together
 Job number = 22, Threshold = 1.00E-11
Integral type ranges set in mkLRange.C for JobNum: 22  <1-21|1-21>
 MakeJK  time:  CPU       0.16 s  wall       0.16 s
Fock build time:  0.16 s (CPU) 0.16 s (wall)
DIIS Errors:  Max 1.45E-02 RMS 2.18E-03

Current DIIS subspace size = 3
REM_GRID_RESTART_DIIS = 0

    3     -79.2256118119      2.18E-03  00000
Finding J and K together
 Job number = 22, Threshold = 1.00E-11
Integral type ranges set in mkLRange.C for JobNum: 22  <1-21|1-21>
 MakeJK  time:  CPU       0.16 s  wall       0.16 s
Fock build time:  0.16 s (CPU) 0.16 s (wall)
DIIS Errors:  Max 4.49E-03 RMS 8.03E-04

Current DIIS subspace size = 4
REM_GRID_RESTART_DIIS = 0

    4     -79.2269459246      8.03E-04  00000
Finding J and K together
 Job number = 22, Threshold = 1.00E-11
Integral type ranges set in mkLRange.C for JobNum: 22  <1-21|1-21>
 MakeJK  time:  CPU       0.16 s  wall       0.16 s
Fock build time:  0.16 s (CPU) 0.16 s (wall)
DIIS Errors:  Max 7.66E-04 RMS 7.28E-05

Current DIIS subspace size = 5
REM_GRID_RESTART_DIIS = 0

    5     -79.2271055289      7.28E-05  00000
Finding J and K together
 Job number = 22, Threshold = 1.00E-11
Integral type ranges set in mkLRange.C for JobNum: 22  <1-21|1-21>
 MakeJK  time:  CPU       0.16 s  wall       0.16 s
Fock build time:  0.16 s (CPU) 0.16 s (wall)
DIIS Errors:  Max 5.55E-05 RMS 6.73E-06

Current DIIS subspace size = 6
REM_GRID_RESTART_DIIS = 0

    6     -79.2271079467      6.73E-06  00000
Finding J and K together
 Job number = 22, Threshold = 1.00E-11
Integral type ranges set in mkLRange.C for JobNum: 22  <1-21|1-21>
 MakeJK  time:  CPU       0.16 s  wall       0.16 s
Fock build time:  0.16 s (CPU) 0.16 s (wall)
DIIS Errors:  Max 9.12E-06 RMS 1.34E-06

Current DIIS subspace size = 7
REM_GRID_RESTART_DIIS = 0

    7     -79.2271079687      1.34E-06  00000
Finding J and K together
 Job number = 22, Threshold = 1.00E-11
Integral type ranges set in mkLRange.C for JobNum: 22  <1-21|1-21>
 MakeJK  time:  CPU       0.16 s  wall       0.16 s
Fock build time:  0.16 s (CPU) 0.16 s (wall)
DIIS Errors:  Max 7.53E-07 RMS 1.26E-07

Current DIIS subspace size = 8
REM_GRID_RESTART_DIIS = 0

    8     -79.2271079695      1.26E-07  00000
Finding J and K together
 Job number = 22, Threshold = 1.00E-11
Integral type ranges set in mkLRange.C for JobNum: 22  <1-21|1-21>
 MakeJK  time:  CPU       0.16 s  wall       0.16 s
Fock build time:  0.16 s (CPU) 0.16 s (wall)
DIIS Errors:  Max 2.01E-07 RMS 2.33E-08

Current DIIS subspace size = 9
REM_GRID_RESTART_DIIS = 0

    9     -79.2271079695      2.33E-08  00000
Finding J and K together
 Job number = 22, Threshold = 1.00E-11
Integral type ranges set in mkLRange.C for JobNum: 22  <1-21|1-21>
 MakeJK  time:  CPU       0.16 s  wall       0.16 s
Fock build time:  0.16 s (CPU) 0.16 s (wall)
DIIS Errors:  Max 7.34E-08 RMS 7.04E-09

Current DIIS subspace size = 10
REM_GRID_RESTART_DIIS = 0

   10     -79.2271079695      7.04E-09  00000 Convergence criterion met
 ---------------------------------------
 SCF time:  CPU 1.61 s  wall 1.61 s
 SCF   energy in the final basis set = -79.22710797
 Total energy in the final basis set = -79.22710797
drvman_main.C: 73: calling DrvMan  Calculating analytic gradient of the SCF energy
drvman.C : 218: Calculating analytic gradient of the SCF energy
drvman.C: 244: calling SCF_Grad for normal SCF gradient
 Job number = 111, Threshold = 1.00E-11
Integral type ranges set in mkLRange.C for JobNum: 11  <1-21|22-22>
Finding J and K together
 ML is being used
 Job number = 122, Threshold = 1.00E-11
Integral type ranges set in mkLRange.C for JobNum: 22  <1-21|1-21>
 MakeJK  time:  CPU       0.77 s  wall       0.76 s
 Gradient of SCF Energy
            1           2           3           4           5           6
    1   0.0162161  -0.0108642   0.0037362  -0.0029047  -0.0037039  -0.0038027
    2   0.0179442   0.0162600  -0.0038754  -0.0072532  -0.0064098  -0.0007909
    3   0.0047027   0.0068699  -0.0003038   0.0085577  -0.0131636   0.0010573
            7           8
    1  -0.0027117   0.0040350
    2   0.0030989  -0.0189737
    3  -0.0053646  -0.0023554
 Max gradient component =       1.897E-02
 RMS gradient           =       8.831E-03
drvman.C: 248: out of SCF_Grad for normal SCF gradient
 Gradient time:  CPU 0.78 s  wall 0.77 s
 ------------------------------------------------------------------------------
                     drvman        : Timing summary (seconds)
 ------------------------------------------------------------------------------
     job step          cpu (% of tot)      sys (% of tot)     wall (% of tot)
 ------------------------------------------------------------------------------
 ------------------------------------------------------------------------------
   Grand Totals     0.7800E+00          0.5000E-05          0.7730E+00
 ------------------------------------------------------------------------------
drvman_main.C: 77: out of DrvMan  Time for this dynamics step: 2.4 s (CPU) 2.4 s (wall)

TIME STEP #2 (t = 20.000 a.u. = 0.48378 fs)
--------------------------------------
 Instantaneous Temperature = 325.2 K
 ----------------------------------------------------------------
             Standard Nuclear Orientation (Angstroms)
    I     Atom           X                Y                Z
 ----------------------------------------------------------------
    1      C      -2.8248450444     2.4687548372     0.0004386480
    2      C      -1.3183570368     2.4673051538     0.0031223937
    3      H      -3.2081171154     3.4528386126     0.1233694319
    4      H      -3.2361233572     1.8347852137     0.8141784010
    5      H      -3.2255076555     2.0521741368    -0.9601753903
    6      H      -0.9512229361     2.8326805755     0.9438136822
    7      H      -0.9623256028     3.0880970135    -0.8182695690
    8      H      -0.9269241785     1.4132945574    -0.1453170595
 ----------------------------------------------------------------
 Nuclear Repulsion Energy =    42.4119766332 hartrees
 There are        9 alpha and        9 beta electrons

                       Distance Matrix (Angstroms)
             C (  1)   C (  2)   H (  3)   H (  4)   H (  5)   H (  6)
   C (  2)  1.506491
   H (  3)  1.063217  2.134696
   H (  4)  1.110513  2.176171  1.759573
   H (  5)  1.121093  2.176580  1.770941  1.787653
   H (  6)  2.129051  1.073865  2.480181  2.496672  3.067040
   H (  7)  2.126699  1.089415  2.462377  3.066893  2.493044  1.780533
   H (  8)  2.176544  1.134104  3.071770  2.535880  2.521041  1.789260
             H (  7)
   H (  8)  1.805293

 Applying Cartesian multipole field
    Component          Value
    ---------          -----
     (2,0,0)        1.00000E-11
     (0,2,0)        2.00000E-11
     (0,0,2)       -3.00000E-10
 Nucleus-field energy     =     0.0000000079 hartrees
 ENuRep (before)= 42.4119766332
 ENucField = 0.0000000079
 ENuRep (after) = 42.4119766411
 Job number = 2, Threshold = 1.00E-11
Integral type ranges set in mkLRange.C for JobNum: 2  <1-21|1-21>
Symmetry turned off temporarily
Symmetry turned back on
 Job number = 11, Threshold = 1.00E-11
Integral type ranges set in mkLRange.C for JobNum: 11  <1-21|22-22>
 Smallest overlap matrix eigenvalue = 7.93E-03
 Multipole matrices computed through 2nd order
 Guess from superposition of atomic densities
 Warning:  Energy on first SCF cycle will be non-variational
 SAD guess density has 18.000000 electrons
 SCF convergence criterion is 10**(-8)
 A restricted Hartree-Fock SCF calculation will be
 performed using Pulay DIIS extrapolation
 SCF converges when DIIS error is below 1.0E-08
Finding J and K together
 Job number = 22, Threshold = 1.00E-11
Integral type ranges set in mkLRange.C for JobNum: 22  <1-21|1-21>
 MakeJK  time:  CPU       0.12 s  wall       0.12 s
Fock build time:  0.12 s (CPU) 0.12 s (wall)
DIIS Errors:  Max 8.54E-01 RMS 1.21E-01

Current DIIS subspace size = 1
REM_GRID_RESTART_DIIS = 0

 ---------------------------------------
  Cycle       Energy         DIIS Error
 ---------------------------------------
    1     -79.6538908881      1.21E-01  00000
Finding J and K together
 Job number = 22, Threshold = 1.00E-11
Integral type ranges set in mkLRange.C for JobNum: 22  <1-21|1-21>
 MakeJK  time:  CPU       0.17 s  wall       0.17 s
Fock build time:  0.17 s (CPU) 0.17 s (wall)
DIIS Errors:  Max 3.95E-02 RMS 8.40E-03

Current DIIS subspace size = 2
REM_GRID_RESTART_DIIS = 0

    2     -79.2042784481      8.40E-03  00000
Finding J and K together
 Job number = 22, Threshold = 1.00E-11
Integral type ranges set in mkLRange.C for JobNum: 22  <1-21|1-21>
 MakeJK  time:  CPU       0.16 s  wall       0.17 s
Fock build time:  0.16 s (CPU) 0.17 s (wall)
DIIS Errors:  Max 1.47E-02 RMS 2.18E-03

Current DIIS subspace size = 3
REM_GRID_RESTART_DIIS = 0

    3     -79.2234166835      2.18E-03  00000
Finding J and K together
 Job number = 22, Threshold = 1.00E-11
Integral type ranges set in mkLRange.C for JobNum: 22  <1-21|1-21>
 MakeJK  time:  CPU       0.17 s  wall       0.17 s
Fock build time:  0.17 s (CPU) 0.17 s (wall)
DIIS Errors:  Max 4.55E-03 RMS 8.07E-04

Current DIIS subspace size = 4
REM_GRID_RESTART_DIIS = 0

    4     -79.2247605646      8.07E-04  00000
Finding J and K together
 Job number = 22, Threshold = 1.00E-11
Integral type ranges set in mkLRange.C for JobNum: 22  <1-21|1-21>
 MakeJK  time:  CPU       0.16 s  wall       0.16 s
Fock build time:  0.16 s (CPU) 0.16 s (wall)
DIIS Errors:  Max 7.73E-04 RMS 7.36E-05

Current DIIS subspace size = 5
REM_GRID_RESTART_DIIS = 0

    5     -79.2249223710      7.36E-05  00000
Finding J and K together
 Job number = 22, Threshold = 1.00E-11
Integral type ranges set in mkLRange.C for JobNum: 22  <1-21|1-21>
 MakeJK  time:  CPU       0.17 s  wall       0.17 s
Fock build time:  0.17 s (CPU) 0.17 s (wall)
DIIS Errors:  Max 5.60E-05 RMS 6.92E-06

Current DIIS subspace size = 6
REM_GRID_RESTART_DIIS = 0

    6     -79.2249248487      6.92E-06  00000
Finding J and K together
 Job number = 22, Threshold = 1.00E-11
Integral type ranges set in mkLRange.C for JobNum: 22  <1-21|1-21>
 MakeJK  time:  CPU       0.17 s  wall       0.17 s
Fock build time:  0.17 s (CPU) 0.17 s (wall)
DIIS Errors:  Max 9.43E-06 RMS 1.41E-06

Current DIIS subspace size = 7
REM_GRID_RESTART_DIIS = 0

    7     -79.2249248720      1.41E-06  00000
Finding J and K together
 Job number = 22, Threshold = 1.00E-11
Integral type ranges set in mkLRange.C for JobNum: 22  <1-21|1-21>
 MakeJK  time:  CPU       0.16 s  wall       0.16 s
Fock build time:  0.16 s (CPU) 0.16 s (wall)
DIIS Errors:  Max 1.27E-06 RMS 1.57E-07

Current DIIS subspace size = 8
REM_GRID_RESTART_DIIS = 0

    8     -79.2249248729      1.57E-07  00000
Finding J and K together
 Job number = 22, Threshold = 1.00E-11
Integral type ranges set in mkLRange.C for JobNum: 22  <1-21|1-21>
 MakeJK  time:  CPU       0.16 s  wall       0.17 s
Fock build time:  0.16 s (CPU) 0.17 s (wall)
DIIS Errors:  Max 4.22E-07 RMS 4.34E-08

Current DIIS subspace size = 9
REM_GRID_RESTART_DIIS = 0

    9     -79.2249248729      4.34E-08  00000
Finding J and K together
 Job number = 22, Threshold = 1.00E-11
Integral type ranges set in mkLRange.C for JobNum: 22  <1-21|1-21>
 MakeJK  time:  CPU       0.16 s  wall       0.16 s
Fock build time:  0.16 s (CPU) 0.16 s (wall)
DIIS Errors:  Max 1.17E-07 RMS 1.04E-08

Current DIIS subspace size = 10
REM_GRID_RESTART_DIIS = 0

   10     -79.2249248729      1.04E-08  00000
Finding J and K together
 Job number = 22, Threshold = 1.00E-11
Integral type ranges set in mkLRange.C for JobNum: 22  <1-21|1-21>
 MakeJK  time:  CPU       0.17 s  wall       0.17 s
Fock build time:  0.17 s (CPU) 0.17 s (wall)
DIIS Errors:  Max 1.28E-08 RMS 1.93E-09

Current DIIS subspace size = 11
REM_GRID_RESTART_DIIS = 0

   11     -79.2249248729      1.93E-09  00000 Convergence criterion met
 ---------------------------------------
 SCF time:  CPU 1.81 s  wall 1.81 s
 SCF   energy in the final basis set = -79.22492487
 Total energy in the final basis set = -79.22492487
drvman_main.C: 73: calling DrvMan  Calculating analytic gradient of the SCF energy
drvman.C : 218: Calculating analytic gradient of the SCF energy
drvman.C: 244: calling SCF_Grad for normal SCF gradient
 Job number = 111, Threshold = 1.00E-11
Integral type ranges set in mkLRange.C for JobNum: 11  <1-21|22-22>
Finding J and K together
 ML is being used
 Job number = 122, Threshold = 1.00E-11
Integral type ranges set in mkLRange.C for JobNum: 22  <1-21|1-21>
 MakeJK  time:  CPU       0.78 s  wall       0.77 s
 Gradient of SCF Energy
            1           2           3           4           5           6
    1   0.0204231  -0.0098524   0.0074496  -0.0057146  -0.0070447  -0.0073674
    2   0.0351667   0.0300369  -0.0146737  -0.0098952  -0.0097461  -0.0040743
    3   0.0086695   0.0135196  -0.0014576   0.0110973  -0.0187161  -0.0042311
            7           8
    1  -0.0052225   0.0073288
    2   0.0020262  -0.0288405
    3  -0.0052864  -0.0035952
 Max gradient component =       3.517E-02
 RMS gradient           =       1.440E-02
drvman.C: 248: out of SCF_Grad for normal SCF gradient
 Gradient time:  CPU 0.79 s  wall 0.78 s
 ------------------------------------------------------------------------------
                     drvman        : Timing summary (seconds)
 ------------------------------------------------------------------------------
     job step          cpu (% of tot)      sys (% of tot)     wall (% of tot)
 ------------------------------------------------------------------------------
 ------------------------------------------------------------------------------
   Grand Totals     0.7880E+00          0.3000E-05          0.7787E+00
 ------------------------------------------------------------------------------
drvman_main.C: 77: out of DrvMan  Time for this dynamics step: 2.6 s (CPU) 2.6 s (wall)

TIME STEP #3 (t = 40.000 a.u. = 0.96755 fs)
--------------------------------------
 Instantaneous Temperature = 268.8 K
 ----------------------------------------------------------------
             Standard Nuclear Orientation (Angstroms)
    I     Atom           X                Y                Z
 ----------------------------------------------------------------
    1      C      -2.8223736490     2.4709451451     0.0005513289
    2      C      -1.3182526542     2.4688234073     0.0045195296
    3      H      -3.2058792226     3.4416868221     0.1179095896
    4      H      -3.2459892893     1.8341407505     0.8134610199
    5      H      -3.2298664471     2.0435433702    -0.9639833581
    6      H      -0.9588314932     2.8222208545     0.9427821033
    7      H      -0.9757954754     3.0878035517    -0.8204512286
    8      H      -0.9245281141     1.4003177724    -0.1500956719
 ----------------------------------------------------------------
 Nuclear Repulsion Energy =    42.4308315508 hartrees
 There are        9 alpha and        9 beta electrons

                       Distance Matrix (Angstroms)
             C (  1)   C (  2)   H (  3)   H (  4)   H (  5)   H (  6)
   C (  2)  1.504128
   H (  3)  1.050328  2.126606
   H (  4)  1.116151  2.184806  1.752029
   H (  5)  1.130951  2.184749  1.768014  1.789809
   H (  6)  2.117542  1.065087  2.472524  2.494818  3.065892
   H (  7)  2.112915  1.086734  2.445205  3.065146  2.488356  1.783203
   H (  8)  2.184206  1.149186  3.073040  2.550652  2.527991  1.793702
             H (  7)
   H (  8)  1.816484

 Applying Cartesian multipole field
    Component          Value
    ---------          -----
     (2,0,0)        1.00000E-11
     (0,2,0)        2.00000E-11
     (0,0,2)       -3.00000E-10
 Nucleus-field energy     =     0.0000000079 hartrees
 ENuRep (before)= 42.4308315508
 ENucField = 0.0000000079
 ENuRep (after) = 42.4308315586
 Job number = 2, Threshold = 1.00E-11
Integral type ranges set in mkLRange.C for JobNum: 2  <1-21|1-21>
Symmetry turned off temporarily
Symmetry turned back on
 Job number = 11, Threshold = 1.00E-11
Integral type ranges set in mkLRange.C for JobNum: 11  <1-21|22-22>
 Smallest overlap matrix eigenvalue = 7.89E-03
 Multipole matrices computed through 2nd order
 Guess from superposition of atomic densities
 Warning:  Energy on first SCF cycle will be non-variational
 SAD guess density has 18.000000 electrons
 SCF convergence criterion is 10**(-8)
 A restricted Hartree-Fock SCF calculation will be
 performed using Pulay DIIS extrapolation
 SCF converges when DIIS error is below 1.0E-08
Finding J and K together
 Job number = 22, Threshold = 1.00E-11
Integral type ranges set in mkLRange.C for JobNum: 22  <1-21|1-21>
 MakeJK  time:  CPU       0.12 s  wall       0.12 s
Fock build time:  0.12 s (CPU) 0.12 s (wall)
DIIS Errors:  Max 8.55E-01 RMS 1.21E-01

Current DIIS subspace size = 1
REM_GRID_RESTART_DIIS = 0

 ---------------------------------------
  Cycle       Energy         DIIS Error
 ---------------------------------------
    1     -79.6541757526      1.21E-01  00000
Finding J and K together
 Job number = 22, Threshold = 1.00E-11
Integral type ranges set in mkLRange.C for JobNum: 22  <1-21|1-21>
 MakeJK  time:  CPU       0.16 s  wall       0.16 s
Fock build time:  0.16 s (CPU) 0.16 s (wall)
DIIS Errors:  Max 3.97E-02 RMS 8.42E-03

Current DIIS subspace size = 2
REM_GRID_RESTART_DIIS = 0

    2     -79.2014402931      8.42E-03  00000
Finding J and K together
 Job number = 22, Threshold = 1.00E-11
Integral type ranges set in mkLRange.C for JobNum: 22  <1-21|1-21>
 MakeJK  time:  CPU       0.16 s  wall       0.16 s
Fock build time:  0.16 s (CPU) 0.16 s (wall)
DIIS Errors:  Max 1.50E-02 RMS 2.20E-03

Current DIIS subspace size = 3
REM_GRID_RESTART_DIIS = 0

    3     -79.2206683412      2.20E-03  00000
Finding J and K together
 Job number = 22, Threshold = 1.00E-11
Integral type ranges set in mkLRange.C for JobNum: 22  <1-21|1-21>
 MakeJK  time:  CPU       0.17 s  wall       0.17 s
Fock build time:  0.17 s (CPU) 0.17 s (wall)
DIIS Errors:  Max 4.61E-03 RMS 8.14E-04

Current DIIS subspace size = 4
REM_GRID_RESTART_DIIS = 0

    4     -79.2220268668      8.14E-04  00000
Finding J and K together
 Job number = 22, Threshold = 1.00E-11
Integral type ranges set in mkLRange.C for JobNum: 22  <1-21|1-21>
 MakeJK  time:  CPU       0.16 s  wall       0.16 s
Fock build time:  0.16 s (CPU) 0.16 s (wall)
DIIS Errors:  Max 7.81E-04 RMS 7.47E-05

Current DIIS subspace size = 5
REM_GRID_RESTART_DIIS = 0

    5     -79.2221920326      7.47E-05  00000
Finding J and K together
 Job number = 22, Threshold = 1.00E-11
Integral type ranges set in mkLRange.C for JobNum: 22  <1-21|1-21>
 MakeJK  time:  CPU       0.16 s  wall       0.16 s
Fock build time:  0.16 s (CPU) 0.16 s (wall)
DIIS Errors:  Max 5.65E-05 RMS 7.17E-06

Current DIIS subspace size = 6
REM_GRID_RESTART_DIIS = 0

    6     -79.2221945974      7.17E-06  00000
Finding J and K together
 Job number = 22, Threshold = 1.00E-11
Integral type ranges set in mkLRange.C for JobNum: 22  <1-21|1-21>
 MakeJK  time:  CPU       0.16 s  wall       0.16 s
Fock build time:  0.16 s (CPU) 0.16 s (wall)
DIIS Errors:  Max 9.61E-06 RMS 1.50E-06

Current DIIS subspace size = 7
REM_GRID_RESTART_DIIS = 0

    7     -79.2221946223      1.50E-06  00000
Finding J and K together
 Job number = 22, Threshold = 1.00E-11
Integral type ranges set in mkLRange.C for JobNum: 22  <1-21|1-21>
 MakeJK  time:  CPU       0.16 s  wall       0.16 s
Fock build time:  0.16 s (CPU) 0.16 s (wall)
DIIS Errors:  Max 1.74E-06 RMS 1.94E-07

Current DIIS subspace size = 8
REM_GRID_RESTART_DIIS = 0

    8     -79.2221946234      1.94E-07  00000
Finding J and K together
 Job number = 22, Threshold = 1.00E-11
Integral type ranges set in mkLRange.C for JobNum: 22  <1-21|1-21>
 MakeJK  time:  CPU       0.16 s  wall       0.16 s
Fock build time:  0.16 s (CPU) 0.16 s (wall)
DIIS Errors:  Max 5.87E-07 RMS 5.96E-08

Current DIIS subspace size = 9
REM_GRID_RESTART_DIIS = 0

    9     -79.2221946234      5.96E-08  00000
Finding J and K together
 Job number = 22, Threshold = 1.00E-11
Integral type ranges set in mkLRange.C for JobNum: 22  <1-21|1-21>
 MakeJK  time:  CPU       0.16 s  wall       0.16 s
Fock build time:  0.16 s (CPU) 0.16 s (wall)
DIIS Errors:  Max 1.46E-07 RMS 1.31E-08

Current DIIS subspace size = 10
REM_GRID_RESTART_DIIS = 0

   10     -79.2221946234      1.31E-08  00000
Finding J and K together
 Job number = 22, Threshold = 1.00E-11
Integral type ranges set in mkLRange.C for JobNum: 22  <1-21|1-21>
 MakeJK  time:  CPU       0.16 s  wall       0.16 s
Fock build time:  0.16 s (CPU) 0.16 s (wall)
DIIS Errors:  Max 1.46E-08 RMS 2.30E-09

Current DIIS subspace size = 11
REM_GRID_RESTART_DIIS = 0

   11     -79.2221946234      2.30E-09  00000 Convergence criterion met
 ---------------------------------------
 SCF time:  CPU 1.78 s  wall 1.78 s
 SCF   energy in the final basis set = -79.22219462
 Total energy in the final basis set = -79.22219462
drvman_main.C: 73: calling DrvMan  Calculating analytic gradient of the SCF energy
drvman.C : 218: Calculating analytic gradient of the SCF energy
drvman.C: 244: calling SCF_Grad for normal SCF gradient
 Job number = 111, Threshold = 1.00E-11
Integral type ranges set in mkLRange.C for JobNum: 11  <1-21|22-22>
Finding J and K together
 ML is being used
 Job number = 122, Threshold = 1.00E-11
Integral type ranges set in mkLRange.C for JobNum: 22  <1-21|1-21>
 MakeJK  time:  CPU       0.76 s  wall       0.75 s
 Gradient of SCF Energy
            1           2           3           4           5           6
    1   0.0235932  -0.0080676   0.0109061  -0.0080668  -0.0096817  -0.0106494
    2   0.0501542   0.0409703  -0.0247042  -0.0117667  -0.0123659  -0.0071097
    3   0.0117381   0.0193555  -0.0024559   0.0126322  -0.0225111  -0.0092293
            7           8
    1  -0.0076824   0.0096487
    2   0.0008080  -0.0359860
    3  -0.0049945  -0.0045350
 Max gradient component =       5.015E-02
 RMS gradient           =       1.928E-02
drvman.C: 248: out of SCF_Grad for normal SCF gradient
 Gradient time:  CPU 0.77 s  wall 0.76 s
 ------------------------------------------------------------------------------
                     drvman        : Timing summary (seconds)
 ------------------------------------------------------------------------------
     job step          cpu (% of tot)      sys (% of tot)     wall (% of tot)
 ------------------------------------------------------------------------------
 ------------------------------------------------------------------------------
   Grand Totals     0.7680E+00          0.9000E-05          0.7594E+00
 ------------------------------------------------------------------------------
drvman_main.C: 77: out of DrvMan  Time for this dynamics step: 2.6 s (CPU) 2.6 s (wall)

TIME STEP #4 (t = 60.000 a.u. = 1.45133 fs)
--------------------------------------
 Instantaneous Temperature = 198.2 K
 ----------------------------------------------------------------
             Standard Nuclear Orientation (Angstroms)
    I     Atom           X                Y                Z
 ----------------------------------------------------------------
    1      C      -2.8201305538     2.4726501347     0.0005504255
    2      C      -1.3180702052     2.4699452105     0.0057293713
    3      H      -3.2048978848     3.4333813587     0.1127327107
    4      H      -3.2549257941     1.8348520043     0.8112882022
    5      H      -3.2331097458     2.0363373520    -0.9651976811
    6      H      -0.9652130619     2.8125802840     0.9428138924
    7      H      -0.9883802162     3.0874169968    -0.8220574394
    8      H      -0.9232437357     1.3914871538    -0.1543517812
 ----------------------------------------------------------------
 Nuclear Repulsion Energy =    42.4623271474 hartrees
 There are        9 alpha and        9 beta electrons

                       Distance Matrix (Angstroms)
             C (  1)   C (  2)   H (  3)   H (  4)   H (  5)   H (  6)
   C (  2)  1.502072
   H (  3)  1.040978  2.121268
   H (  4)  1.119432  2.191729  1.745216
   H (  5)  1.137361  2.190455  1.764784  1.788008
   H (  6)  2.108111  1.058317  2.467918  2.493198  3.063726
   H (  7)  2.099984  1.084065  2.430324  3.061693  2.482754  1.786293
   H (  8)  2.188855  1.159563  3.073534  2.562377  2.531558  1.795840
             H (  7)
   H (  8)  1.823801

 Applying Cartesian multipole field
    Component          Value
    ---------          -----
     (2,0,0)        1.00000E-11
     (0,2,0)        2.00000E-11
     (0,0,2)       -3.00000E-10
 Nucleus-field energy     =     0.0000000079 hartrees
 ENuRep (before)= 42.4623271474
 ENucField = 0.0000000079
 ENuRep (after) = 42.4623271553
 Job number = 2, Threshold = 1.00E-11
Integral type ranges set in mkLRange.C for JobNum: 2  <1-21|1-21>
Symmetry turned off temporarily
Symmetry turned back on
 Job number = 11, Threshold = 1.00E-11
Integral type ranges set in mkLRange.C for JobNum: 11  <1-21|22-22>
 Smallest overlap matrix eigenvalue = 7.86E-03
 Multipole matrices computed through 2nd order
 Guess from superposition of atomic densities
 Warning:  Energy on first SCF cycle will be non-variational
 SAD guess density has 18.000000 electrons
 SCF convergence criterion is 10**(-8)
 A restricted Hartree-Fock SCF calculation will be
 performed using Pulay DIIS extrapolation
 SCF converges when DIIS error is below 1.0E-08
Finding J and K together
 Job number = 22, Threshold = 1.00E-11
Integral type ranges set in mkLRange.C for JobNum: 22  <1-21|1-21>
 MakeJK  time:  CPU       0.12 s  wall       0.13 s
Fock build time:  0.13 s (CPU) 0.13 s (wall)
DIIS Errors:  Max 8.57E-01 RMS 1.21E-01

Current DIIS subspace size = 1
REM_GRID_RESTART_DIIS = 0

 ---------------------------------------
  Cycle       Energy         DIIS Error
 ---------------------------------------
    1     -79.6576858955      1.21E-01  00000
Finding J and K together
 Job number = 22, Threshold = 1.00E-11
Integral type ranges set in mkLRange.C for JobNum: 22  <1-21|1-21>
 MakeJK  time:  CPU       0.17 s  wall       0.17 s
Fock build time:  0.17 s (CPU) 0.17 s (wall)
DIIS Errors:  Max 3.99E-02 RMS 8.43E-03

Current DIIS subspace size = 2
REM_GRID_RESTART_DIIS = 0

    2     -79.1987909418      8.43E-03  00000
Finding J and K together
 Job number = 22, Threshold = 1.00E-11
Integral type ranges set in mkLRange.C for JobNum: 22  <1-21|1-21>
 MakeJK  time:  CPU       0.17 s  wall       0.17 s
Fock build time:  0.17 s (CPU) 0.17 s (wall)
DIIS Errors:  Max 1.53E-02 RMS 2.21E-03

Current DIIS subspace size = 3
REM_GRID_RESTART_DIIS = 0

    3     -79.2181169089      2.21E-03  00000
Finding J and K together
 Job number = 22, Threshold = 1.00E-11
Integral type ranges set in mkLRange.C for JobNum: 22  <1-21|1-21>
 MakeJK  time:  CPU       0.16 s  wall       0.16 s
Fock build time:  0.16 s (CPU) 0.16 s (wall)
DIIS Errors:  Max 4.78E-03 RMS 8.22E-04

Current DIIS subspace size = 4
REM_GRID_RESTART_DIIS = 0

    4     -79.2194909697      8.22E-04  00000
Finding J and K together
 Job number = 22, Threshold = 1.00E-11
Integral type ranges set in mkLRange.C for JobNum: 22  <1-21|1-21>
 MakeJK  time:  CPU       0.16 s  wall       0.16 s
Fock build time:  0.16 s (CPU) 0.16 s (wall)
DIIS Errors:  Max 7.88E-04 RMS 7.59E-05

Current DIIS subspace size = 5
REM_GRID_RESTART_DIIS = 0

    5     -79.2196598168      7.59E-05  00000
Finding J and K together
 Job number = 22, Threshold = 1.00E-11
Integral type ranges set in mkLRange.C for JobNum: 22  <1-21|1-21>
 MakeJK  time:  CPU       0.17 s  wall       0.17 s
Fock build time:  0.17 s (CPU) 0.17 s (wall)
DIIS Errors:  Max 5.69E-05 RMS 7.41E-06

Current DIIS subspace size = 6
REM_GRID_RESTART_DIIS = 0

    6     -79.2196624725      7.41E-06  00000
Finding J and K together
 Job number = 22, Threshold = 1.00E-11
Integral type ranges set in mkLRange.C for JobNum: 22  <1-21|1-21>
 MakeJK  time:  CPU       0.16 s  wall       0.16 s
Fock build time:  0.16 s (CPU) 0.16 s (wall)
DIIS Errors:  Max 1.00E-05 RMS 1.57E-06

Current DIIS subspace size = 7
REM_GRID_RESTART_DIIS = 0

    7     -79.2196624991      1.57E-06  00000
Finding J and K together
 Job number = 22, Threshold = 1.00E-11
Integral type ranges set in mkLRange.C for JobNum: 22  <1-21|1-21>
 MakeJK  time:  CPU       0.16 s  wall       0.16 s
Fock build time:  0.16 s (CPU) 0.16 s (wall)
DIIS Errors:  Max 2.08E-06 RMS 2.25E-07

Current DIIS subspace size = 8
REM_GRID_RESTART_DIIS = 0

    8     -79.2196625003      2.25E-07  00000
Finding J and K together
 Job number = 22, Threshold = 1.00E-11
Integral type ranges set in mkLRange.C for JobNum: 22  <1-21|1-21>
 MakeJK  time:  CPU       0.16 s  wall       0.16 s
Fock build time:  0.16 s (CPU) 0.16 s (wall)
DIIS Errors:  Max 6.87E-07 RMS 6.98E-08

Current DIIS subspace size = 9
REM_GRID_RESTART_DIIS = 0

    9     -79.2196625003      6.98E-08  00000
Finding J and K together
 Job number = 22, Threshold = 1.00E-11
Integral type ranges set in mkLRange.C for JobNum: 22  <1-21|1-21>
 MakeJK  time:  CPU       0.17 s  wall       0.17 s
Fock build time:  0.17 s (CPU) 0.17 s (wall)
DIIS Errors:  Max 1.65E-07 RMS 1.50E-08

Current DIIS subspace size = 10
REM_GRID_RESTART_DIIS = 0

   10     -79.2196625003      1.50E-08  00000
Finding J and K together
 Job number = 22, Threshold = 1.00E-11
Integral type ranges set in mkLRange.C for JobNum: 22  <1-21|1-21>
 MakeJK  time:  CPU       0.17 s  wall       0.17 s
Fock build time:  0.17 s (CPU) 0.17 s (wall)
DIIS Errors:  Max 1.53E-08 RMS 2.48E-09

Current DIIS subspace size = 11
REM_GRID_RESTART_DIIS = 0

   11     -79.2196625003      2.48E-09  00000 Convergence criterion met
 ---------------------------------------
 SCF time:  CPU 1.81 s  wall 1.81 s
 SCF   energy in the final basis set = -79.21966250
 Total energy in the final basis set = -79.21966250
drvman_main.C: 73: calling DrvMan  Calculating analytic gradient of the SCF energy
drvman.C : 218: Calculating analytic gradient of the SCF energy
drvman.C: 244: calling SCF_Grad for normal SCF gradient
 Job number = 111, Threshold = 1.00E-11
Integral type ranges set in mkLRange.C for JobNum: 11  <1-21|22-22>
Finding J and K together
 ML is being used
 Job number = 122, Threshold = 1.00E-11
Integral type ranges set in mkLRange.C for JobNum: 22  <1-21|1-21>
 MakeJK  time:  CPU       0.75 s  wall       0.74 s
 Gradient of SCF Energy
            1           2           3           4           5           6
    1   0.0261589  -0.0059452   0.0135224  -0.0098697  -0.0115686  -0.0133532
    2   0.0612890   0.0488776  -0.0325153  -0.0127966  -0.0141977  -0.0096402
    3   0.0137985   0.0237433  -0.0031446   0.0130889  -0.0245173  -0.0132381
            7           8
    1  -0.0100057   0.0110612
    2  -0.0004850  -0.0405318
    3  -0.0045687  -0.0051621
 Max gradient component =       6.129E-02
 RMS gradient           =       2.291E-02
drvman.C: 248: out of SCF_Grad for normal SCF gradient
 Gradient time:  CPU 0.77 s  wall 0.76 s
 ------------------------------------------------------------------------------
                     drvman        : Timing summary (seconds)
 ------------------------------------------------------------------------------
     job step          cpu (% of tot)      sys (% of tot)     wall (% of tot)
 ------------------------------------------------------------------------------
 ------------------------------------------------------------------------------
   Grand Totals     0.7680E+00          0.5000E-05          0.7562E+00
 ------------------------------------------------------------------------------
drvman_main.C: 77: out of DrvMan  Time for this dynamics step: 2.6 s (CPU) 2.6 s (wall)

TIME STEP #5 (t = 80.000 a.u. = 1.93511 fs)
--------------------------------------
 Instantaneous Temperature = 132.7 K
 ----------------------------------------------------------------
             Standard Nuclear Orientation (Angstroms)
    I     Atom           X                Y                Z
 ----------------------------------------------------------------
    1      C      -2.8181405860     2.4737620590     0.0004160005
    2      C      -1.3178302274     2.4705940477     0.0067094599
    3      H      -3.2054745524     3.4288221881     0.1079181401
    4      H      -3.2627251451     1.8370376294     0.8076073290
    5      H      -3.2350201487     2.0307671428    -0.9635872097
    6      H      -0.9700561202     2.8040504200     0.9443709272
    7      H      -0.9998121382     3.0870863256    -0.8231372666
    8      H      -0.9232337837     1.3873264619    -0.1580131378
 ----------------------------------------------------------------
 Nuclear Repulsion Energy =    42.5015775683 hartrees
 There are        9 alpha and        9 beta electrons

                       Distance Matrix (Angstroms)
             C (  1)   C (  2)   H (  3)   H (  4)   H (  5)   H (  6)
   C (  2)  1.500327
   H (  3)  1.036207  2.119350
   H (  4)  1.120103  2.196690  1.739719
   H (  5)  1.139884  2.193294  1.761691  1.781973
   H (  6)  2.101323  1.054205  2.467203  2.492017  3.060773
   H (  7)  2.088235  1.081593  2.418387  3.056587  2.476225  1.790274
   H (  8)  2.190003  1.164607  3.073605  2.570580  2.531269  1.795703
             H (  7)
   H (  8)  1.826866

 Applying Cartesian multipole field
    Component          Value
    ---------          -----
     (2,0,0)        1.00000E-11
     (0,2,0)        2.00000E-11
     (0,0,2)       -3.00000E-10
 Nucleus-field energy     =     0.0000000079 hartrees
 ENuRep (before)= 42.5015775683
 ENucField = 0.0000000079
 ENuRep (after) = 42.5015775762
 Job number = 2, Threshold = 1.00E-11
Integral type ranges set in mkLRange.C for JobNum: 2  <1-21|1-21>
Symmetry turned off temporarily
Symmetry turned back on
 Job number = 11, Threshold = 1.00E-11
Integral type ranges set in mkLRange.C for JobNum: 11  <1-21|22-22>
 Smallest overlap matrix eigenvalue = 7.83E-03
 Multipole matrices computed through 2nd order
 Guess from superposition of atomic densities
 Warning:  Energy on first SCF cycle will be non-variational
 SAD guess density has 18.000000 electrons
 SCF convergence criterion is 10**(-8)
 A restricted Hartree-Fock SCF calculation will be
 performed using Pulay DIIS extrapolation
 SCF converges when DIIS error is below 1.0E-08
Finding J and K together
 Job number = 22, Threshold = 1.00E-11
Integral type ranges set in mkLRange.C for JobNum: 22  <1-21|1-21>
 MakeJK  time:  CPU       0.12 s  wall       0.12 s
Fock build time:  0.12 s (CPU) 0.12 s (wall)
DIIS Errors:  Max 8.60E-01 RMS 1.22E-01

Current DIIS subspace size = 1
REM_GRID_RESTART_DIIS = 0

 ---------------------------------------
  Cycle       Energy         DIIS Error
 ---------------------------------------
    1     -79.6638538423      1.22E-01  00000
Finding J and K together
 Job number = 22, Threshold = 1.00E-11
Integral type ranges set in mkLRange.C for JobNum: 22  <1-21|1-21>
 MakeJK  time:  CPU       0.16 s  wall       0.16 s
Fock build time:  0.16 s (CPU) 0.16 s (wall)
DIIS Errors:  Max 4.01E-02 RMS 8.45E-03

Current DIIS subspace size = 2
REM_GRID_RESTART_DIIS = 0

    2     -79.1970352268      8.45E-03  00000
Finding J and K together
 Job number = 22, Threshold = 1.00E-11
Integral type ranges set in mkLRange.C for JobNum: 22  <1-21|1-21>
 MakeJK  time:  CPU       0.16 s  wall       0.16 s
Fock build time:  0.16 s (CPU) 0.16 s (wall)
DIIS Errors:  Max 1.55E-02 RMS 2.22E-03

Current DIIS subspace size = 3
REM_GRID_RESTART_DIIS = 0

    3     -79.2164405897      2.22E-03  00000
Finding J and K together
 Job number = 22, Threshold = 1.00E-11
Integral type ranges set in mkLRange.C for JobNum: 22  <1-21|1-21>
 MakeJK  time:  CPU       0.16 s  wall       0.16 s
Fock build time:  0.16 s (CPU) 0.16 s (wall)
DIIS Errors:  Max 4.90E-03 RMS 8.29E-04

Current DIIS subspace size = 4
REM_GRID_RESTART_DIIS = 0

    4     -79.2178272306      8.29E-04  00000
Finding J and K together
 Job number = 22, Threshold = 1.00E-11
Integral type ranges set in mkLRange.C for JobNum: 22  <1-21|1-21>
 MakeJK  time:  CPU       0.16 s  wall       0.16 s
Fock build time:  0.16 s (CPU) 0.16 s (wall)
DIIS Errors:  Max 7.95E-04 RMS 7.67E-05

Current DIIS subspace size = 5
REM_GRID_RESTART_DIIS = 0

    5     -79.2179992429      7.67E-05  00000
Finding J and K together
 Job number = 22, Threshold = 1.00E-11
Integral type ranges set in mkLRange.C for JobNum: 22  <1-21|1-21>
 MakeJK  time:  CPU       0.16 s  wall       0.16 s
Fock build time:  0.16 s (CPU) 0.16 s (wall)
DIIS Errors:  Max 5.74E-05 RMS 7.57E-06

Current DIIS subspace size = 6
REM_GRID_RESTART_DIIS = 0

    6     -79.2180019718      7.57E-06  00000
Finding J and K together
 Job number = 22, Threshold = 1.00E-11
Integral type ranges set in mkLRange.C for JobNum: 22  <1-21|1-21>
 MakeJK  time:  CPU       0.17 s  wall       0.17 s
Fock build time:  0.17 s (CPU) 0.17 s (wall)
DIIS Errors:  Max 1.07E-05 RMS 1.60E-06

Current DIIS subspace size = 7
REM_GRID_RESTART_DIIS = 0

    7     -79.2180019997      1.60E-06  00000
Finding J and K together
 Job number = 22, Threshold = 1.00E-11
Integral type ranges set in mkLRange.C for JobNum: 22  <1-21|1-21>
 MakeJK  time:  CPU       0.17 s  wall       0.17 s
Fock build time:  0.17 s (CPU) 0.17 s (wall)
DIIS Errors:  Max 2.27E-06 RMS 2.42E-07

Current DIIS subspace size = 8
REM_GRID_RESTART_DIIS = 0

    8     -79.2180020009      2.42E-07  00000
Finding J and K together
 Job number = 22, Threshold = 1.00E-11
Integral type ranges set in mkLRange.C for JobNum: 22  <1-21|1-21>
 MakeJK  time:  CPU       0.16 s  wall       0.16 s
Fock build time:  0.16 s (CPU) 0.16 s (wall)
DIIS Errors:  Max 7.39E-07 RMS 7.48E-08

Current DIIS subspace size = 9
REM_GRID_RESTART_DIIS = 0

    9     -79.2180020009      7.48E-08  00000
Finding J and K together
 Job number = 22, Threshold = 1.00E-11
Integral type ranges set in mkLRange.C for JobNum: 22  <1-21|1-21>
 MakeJK  time:  CPU       0.17 s  wall       0.17 s
Fock build time:  0.17 s (CPU) 0.17 s (wall)
DIIS Errors:  Max 1.76E-07 RMS 1.61E-08

Current DIIS subspace size = 10
REM_GRID_RESTART_DIIS = 0

   10     -79.2180020009      1.61E-08  00000
Finding J and K together
 Job number = 22, Threshold = 1.00E-11
Integral type ranges set in mkLRange.C for JobNum: 22  <1-21|1-21>
 MakeJK  time:  CPU       0.17 s  wall       0.17 s
Fock build time:  0.17 s (CPU) 0.17 s (wall)
DIIS Errors:  Max 1.59E-08 RMS 2.55E-09

Current DIIS subspace size = 11
REM_GRID_RESTART_DIIS = 0

   11     -79.2180020009      2.55E-09  00000 Convergence criterion met
 ---------------------------------------
 SCF time:  CPU 1.80 s  wall 1.80 s
 SCF   energy in the final basis set = -79.21800200
 Total energy in the final basis set = -79.21800200
drvman_main.C: 73: calling DrvMan  Calculating analytic gradient of the SCF energy
drvman.C : 218: Calculating analytic gradient of the SCF energy
drvman.C: 244: calling SCF_Grad for normal SCF gradient
 Job number = 111, Threshold = 1.00E-11
Integral type ranges set in mkLRange.C for JobNum: 11  <1-21|22-22>
Finding J and K together
 ML is being used
 Job number = 122, Threshold = 1.00E-11
Integral type ranges set in mkLRange.C for JobNum: 22  <1-21|1-21>
 MakeJK  time:  CPU       0.69 s  wall       0.68 s
 Gradient of SCF Energy
            1           2           3           4           5           6
    1   0.0285811  -0.0038842   0.0147403  -0.0110582  -0.0126859  -0.0152191
    2   0.0671526   0.0536429  -0.0367822  -0.0129541  -0.0152026  -0.0114509
    3   0.0147847   0.0261135  -0.0034070   0.0124443  -0.0247603  -0.0156046
            7           8
    1  -0.0121107   0.0116366
    2  -0.0017730  -0.0426326
    3  -0.0040974  -0.0054731
 Max gradient component =       6.715E-02
 RMS gradient           =       2.492E-02
drvman.C: 248: out of SCF_Grad for normal SCF gradient
 Gradient time:  CPU 0.70 s  wall 0.70 s
 ------------------------------------------------------------------------------
                     drvman        : Timing summary (seconds)
 ------------------------------------------------------------------------------
     job step          cpu (% of tot)      sys (% of tot)     wall (% of tot)
 ------------------------------------------------------------------------------
 ------------------------------------------------------------------------------
   Grand Totals     0.7040E+00          0.5000E-05          0.6986E+00
 ------------------------------------------------------------------------------
drvman_main.C: 77: out of DrvMan  Time for this dynamics step: 2.5 s (CPU) 2.5 s (wall)

TIME STEP #6 (t = 100.000 a.u. = 2.41888 fs)
--------------------------------------
 Instantaneous Temperature = 89.6 K
 ----------------------------------------------------------------
             Standard Nuclear Orientation (Angstroms)
    I     Atom           X                Y                Z
 ----------------------------------------------------------------
    1      C      -2.8164271839     2.4742241790     0.0001385111
    2      C      -1.3175526642     2.4707238076     0.0074368607
    3      H      -3.2077495407     3.4285009298     0.1034961073
    4      H      -3.2692504127     1.8407157827     0.8024926758
    5      H      -3.2354689352     2.0269485254    -0.9591239479
    6      H      -0.9731456952     2.7968398828     0.9477258668
    7      H      -1.0098487100     3.0869599293    -0.8237450048
    8      H      -0.9245645594     1.3880777410    -0.1610439069
 ----------------------------------------------------------------
 Nuclear Repulsion Energy =    42.5447879982 hartrees
 There are        9 alpha and        9 beta electrons

                       Distance Matrix (Angstroms)
             C (  1)   C (  2)   H (  3)   H (  4)   H (  5)   H (  6)
   C (  2)  1.498896
   H (  3)  1.036562  2.121181
   H (  4)  1.118103  2.199579  1.735926
   H (  5)  1.138348  2.193075  1.759056  1.771755
   H (  6)  2.097544  1.053144  2.470865  2.491458  3.057273
   H (  7)  2.077969  1.079487  2.409812  3.050028  2.468874  1.795446
   H (  8)  2.187427  1.164022  3.073474  2.575041  2.526928  1.793416
             H (  7)
   H (  8)  1.825554

 Applying Cartesian multipole field
    Component          Value
    ---------          -----
     (2,0,0)        1.00000E-11
     (0,2,0)        2.00000E-11
     (0,0,2)       -3.00000E-10
 Nucleus-field energy     =     0.0000000079 hartrees
 ENuRep (before)= 42.5447879982
 ENucField = 0.0000000079
 ENuRep (after) = 42.5447880061
 Job number = 2, Threshold = 1.00E-11
Integral type ranges set in mkLRange.C for JobNum: 2  <1-21|1-21>
Symmetry turned off temporarily
Symmetry turned back on
 Job number = 11, Threshold = 1.00E-11
Integral type ranges set in mkLRange.C for JobNum: 11  <1-21|22-22>
 Smallest overlap matrix eigenvalue = 7.81E-03
 Multipole matrices computed through 2nd order
 Guess from superposition of atomic densities
 Warning:  Energy on first SCF cycle will be non-variational
 SAD guess density has 18.000000 electrons
 SCF convergence criterion is 10**(-8)
 A restricted Hartree-Fock SCF calculation will be
 performed using Pulay DIIS extrapolation
 SCF converges when DIIS error is below 1.0E-08
Finding J and K together
 Job number = 22, Threshold = 1.00E-11
Integral type ranges set in mkLRange.C for JobNum: 22  <1-21|1-21>
 MakeJK  time:  CPU       0.12 s  wall       0.13 s
Fock build time:  0.12 s (CPU) 0.13 s (wall)
DIIS Errors:  Max 8.62E-01 RMS 1.22E-01

Current DIIS subspace size = 1
REM_GRID_RESTART_DIIS = 0

 ---------------------------------------
  Cycle       Energy         DIIS Error
 ---------------------------------------
    1     -79.6721509039      1.22E-01  00000
Finding J and K together
 Job number = 22, Threshold = 1.00E-11
Integral type ranges set in mkLRange.C for JobNum: 22  <1-21|1-21>
 MakeJK  time:  CPU       0.17 s  wall       0.17 s
Fock build time:  0.17 s (CPU) 0.17 s (wall)
DIIS Errors:  Max 4.02E-02 RMS 8.47E-03

Current DIIS subspace size = 2
REM_GRID_RESTART_DIIS = 0

    2     -79.1965921178      8.47E-03  00000
Finding J and K together
 Job number = 22, Threshold = 1.00E-11
Integral type ranges set in mkLRange.C for JobNum: 22  <1-21|1-21>
 MakeJK  time:  CPU       0.17 s  wall       0.17 s
Fock build time:  0.17 s (CPU) 0.17 s (wall)
DIIS Errors:  Max 1.57E-02 RMS 2.23E-03

Current DIIS subspace size = 3
REM_GRID_RESTART_DIIS = 0

    3     -79.2160415839      2.23E-03  00000
Finding J and K together
 Job number = 22, Threshold = 1.00E-11
Integral type ranges set in mkLRange.C for JobNum: 22  <1-21|1-21>
 MakeJK  time:  CPU       0.16 s  wall       0.16 s
Fock build time:  0.16 s (CPU) 0.16 s (wall)
DIIS Errors:  Max 4.97E-03 RMS 8.33E-04

Current DIIS subspace size = 4
REM_GRID_RESTART_DIIS = 0

    4     -79.2174353892      8.33E-04  00000
Finding J and K together
 Job number = 22, Threshold = 1.00E-11
Integral type ranges set in mkLRange.C for JobNum: 22  <1-21|1-21>
 MakeJK  time:  CPU       0.17 s  wall       0.17 s
Fock build time:  0.17 s (CPU) 0.17 s (wall)
DIIS Errors:  Max 8.02E-04 RMS 7.71E-05

Current DIIS subspace size = 5
REM_GRID_RESTART_DIIS = 0

    5     -79.2176095036      7.71E-05  00000
Finding J and K together
 Job number = 22, Threshold = 1.00E-11
Integral type ranges set in mkLRange.C for JobNum: 22  <1-21|1-21>
 MakeJK  time:  CPU       0.17 s  wall       0.17 s
Fock build time:  0.17 s (CPU) 0.17 s (wall)
DIIS Errors:  Max 5.78E-05 RMS 7.64E-06

Current DIIS subspace size = 6
REM_GRID_RESTART_DIIS = 0

    6     -79.2176122741      7.64E-06  00000
Finding J and K together
 Job number = 22, Threshold = 1.00E-11
Integral type ranges set in mkLRange.C for JobNum: 22  <1-21|1-21>
 MakeJK  time:  CPU       0.16 s  wall       0.16 s
Fock build time:  0.16 s (CPU) 0.16 s (wall)
DIIS Errors:  Max 1.06E-05 RMS 1.59E-06

Current DIIS subspace size = 7
REM_GRID_RESTART_DIIS = 0

    7     -79.2176123026      1.59E-06  00000
Finding J and K together
 Job number = 22, Threshold = 1.00E-11
Integral type ranges set in mkLRange.C for JobNum: 22  <1-21|1-21>
 MakeJK  time:  CPU       0.17 s  wall       0.17 s
Fock build time:  0.17 s (CPU) 0.17 s (wall)
DIIS Errors:  Max 2.28E-06 RMS 2.42E-07

Current DIIS subspace size = 8
REM_GRID_RESTART_DIIS = 0

    8     -79.2176123038      2.42E-07  00000
Finding J and K together
 Job number = 22, Threshold = 1.00E-11
Integral type ranges set in mkLRange.C for JobNum: 22  <1-21|1-21>
 MakeJK  time:  CPU       0.16 s  wall       0.16 s
Fock build time:  0.16 s (CPU) 0.16 s (wall)
DIIS Errors:  Max 7.50E-07 RMS 7.49E-08

Current DIIS subspace size = 9
REM_GRID_RESTART_DIIS = 0

    9     -79.2176123038      7.49E-08  00000
Finding J and K together
 Job number = 22, Threshold = 1.00E-11
Integral type ranges set in mkLRange.C for JobNum: 22  <1-21|1-21>
 MakeJK  time:  CPU       0.17 s  wall       0.17 s
Fock build time:  0.17 s (CPU) 0.17 s (wall)
DIIS Errors:  Max 1.81E-07 RMS 1.66E-08

Current DIIS subspace size = 10
REM_GRID_RESTART_DIIS = 0

   10     -79.2176123038      1.66E-08  00000
Finding J and K together
 Job number = 22, Threshold = 1.00E-11
Integral type ranges set in mkLRange.C for JobNum: 22  <1-21|1-21>
 MakeJK  time:  CPU       0.17 s  wall       0.17 s
Fock build time:  0.17 s (CPU) 0.17 s (wall)
DIIS Errors:  Max 1.68E-08 RMS 2.55E-09

Current DIIS subspace size = 11
REM_GRID_RESTART_DIIS = 0

   11     -79.2176123038      2.55E-09  00000 Convergence criterion met
 ---------------------------------------
 SCF time:  CPU 1.81 s  wall 1.82 s
 SCF   energy in the final basis set = -79.21761230
 Total energy in the final basis set = -79.21761230
drvman_main.C: 73: calling DrvMan  Calculating analytic gradient of the SCF energy
drvman.C : 218: Calculating analytic gradient of the SCF energy
drvman.C: 244: calling SCF_Grad for normal SCF gradient
 Job number = 111, Threshold = 1.00E-11
Integral type ranges set in mkLRange.C for JobNum: 11  <1-21|22-22>
Finding J and K together
 ML is being used
 Job number = 122, Threshold = 1.00E-11
Integral type ranges set in mkLRange.C for JobNum: 22  <1-21|1-21>
 MakeJK  time:  CPU       0.80 s  wall       0.79 s
 Gradient of SCF Energy
            1           2           3           4           5           6
    1   0.0311292  -0.0021487   0.0142119  -0.0115870  -0.0130191  -0.0160791
    2   0.0669299   0.0551685  -0.0367350  -0.0122413  -0.0153559  -0.0124135
    3   0.0146853   0.0261022  -0.0032071   0.0107100  -0.0232744  -0.0158823
            7           8
    1  -0.0139236   0.0114165
    2  -0.0029711  -0.0423817
    3  -0.0036728  -0.0054610
 Max gradient component =       6.693E-02
 RMS gradient           =       2.512E-02
drvman.C: 248: out of SCF_Grad for normal SCF gradient
 Gradient time:  CPU 0.82 s  wall 0.81 s
 ------------------------------------------------------------------------------
                     drvman        : Timing summary (seconds)
 ------------------------------------------------------------------------------
     job step          cpu (% of tot)      sys (% of tot)     wall (% of tot)
 ------------------------------------------------------------------------------
 ------------------------------------------------------------------------------
   Grand Totals     0.8160E+00          0.2000E-05          0.8062E+00
 ------------------------------------------------------------------------------
drvman_main.C: 77: out of DrvMan  Time for this dynamics step: 2.7 s (CPU) 2.7 s (wall)

TIME STEP #7 (t = 120.000 a.u. = 2.90266 fs)
--------------------------------------
 Instantaneous Temperature = 79.4 K
 ----------------------------------------------------------------
             Standard Nuclear Orientation (Angstroms)
    I     Atom           X                Y                Z
 ----------------------------------------------------------------
    1      C      -2.8150150047     2.4740386493    -0.0002810815
    2      C      -1.3172543095     2.4703197273     0.0079116828
    3      H      -3.2116619686     3.4324121372     0.0994435849
    4      H      -3.2744406670     1.8458043284     0.7961440561
    5      H      -3.2344177047     2.0248991579    -0.9519790968
    6      H      -0.9743826923     2.7910595868     0.9529107014
    7      H      -1.0182810527     3.0871758527    -0.8239295752
    8      H      -0.9272107017     1.3937120776    -0.1634454848
 ----------------------------------------------------------------
 Nuclear Repulsion Energy =    42.5903421909 hartrees
 There are        9 alpha and        9 beta electrons

                       Distance Matrix (Angstroms)
             C (  1)   C (  2)   H (  3)   H (  4)   H (  5)   H (  6)
   C (  2)  1.497788
   H (  3)  1.041995  2.126683
   H (  4)  1.113572  2.200434  1.733971
   H (  5)  1.132852  2.189819  1.757015  1.757729
   H (  6)  2.096903  1.055205  2.478943  2.491656  3.053419
   H (  7)  2.069441  1.077894  2.404730  3.042351  2.460912  1.801880
   H (  8)  2.181177  1.157835  3.073130  2.575789  2.518608  1.789150
             H (  7)
   H (  8)  1.819987

 Applying Cartesian multipole field
    Component          Value
    ---------          -----
     (2,0,0)        1.00000E-11
     (0,2,0)        2.00000E-11
     (0,0,2)       -3.00000E-10
 Nucleus-field energy     =     0.0000000079 hartrees
 ENuRep (before)= 42.5903421909
 ENucField = 0.0000000079
 ENuRep (after) = 42.5903421988
 Job number = 2, Threshold = 1.00E-11
Integral type ranges set in mkLRange.C for JobNum: 2  <1-21|1-21>
Symmetry turned off temporarily
Symmetry turned back on
 Job number = 11, Threshold = 1.00E-11
Integral type ranges set in mkLRange.C for JobNum: 11  <1-21|22-22>
 Smallest overlap matrix eigenvalue = 7.79E-03
 Multipole matrices computed through 2nd order
 Guess from superposition of atomic densities
 Warning:  Energy on first SCF cycle will be non-variational
 SAD guess density has 18.000000 electrons
 SCF convergence criterion is 10**(-8)
 A restricted Hartree-Fock SCF calculation will be
 performed using Pulay DIIS extrapolation
 SCF converges when DIIS error is below 1.0E-08
Finding J and K together
 Job number = 22, Threshold = 1.00E-11
Integral type ranges set in mkLRange.C for JobNum: 22  <1-21|1-21>
 MakeJK  time:  CPU       0.13 s  wall       0.13 s
Fock build time:  0.13 s (CPU) 0.13 s (wall)
DIIS Errors:  Max 8.65E-01 RMS 1.22E-01

Current DIIS subspace size = 1
REM_GRID_RESTART_DIIS = 0

 ---------------------------------------
  Cycle       Energy         DIIS Error
 ---------------------------------------
    1     -79.6822170490      1.22E-01  00000
Finding J and K together
 Job number = 22, Threshold = 1.00E-11
Integral type ranges set in mkLRange.C for JobNum: 22  <1-21|1-21>
 MakeJK  time:  CPU       0.17 s  wall       0.17 s
Fock build time:  0.17 s (CPU) 0.17 s (wall)
DIIS Errors:  Max 4.03E-02 RMS 8.49E-03

Current DIIS subspace size = 2
REM_GRID_RESTART_DIIS = 0

    2     -79.1974556719      8.49E-03  00000
Finding J and K together
 Job number = 22, Threshold = 1.00E-11
Integral type ranges set in mkLRange.C for JobNum: 22  <1-21|1-21>
 MakeJK  time:  CPU       0.16 s  wall       0.16 s
Fock build time:  0.16 s (CPU) 0.16 s (wall)
DIIS Errors:  Max 1.59E-02 RMS 2.24E-03

Current DIIS subspace size = 3
REM_GRID_RESTART_DIIS = 0

    3     -79.2169126937      2.24E-03  00000
Finding J and K together
 Job number = 22, Threshold = 1.00E-11
Integral type ranges set in mkLRange.C for JobNum: 22  <1-21|1-21>
 MakeJK  time:  CPU       0.17 s  wall       0.17 s
Fock build time:  0.17 s (CPU) 0.17 s (wall)
DIIS Errors:  Max 4.98E-03 RMS 8.36E-04

Current DIIS subspace size = 4
REM_GRID_RESTART_DIIS = 0

    4     -79.2183080342      8.36E-04  00000
Finding J and K together
 Job number = 22, Threshold = 1.00E-11
Integral type ranges set in mkLRange.C for JobNum: 22  <1-21|1-21>
 MakeJK  time:  CPU       0.17 s  wall       0.17 s
Fock build time:  0.17 s (CPU) 0.17 s (wall)
DIIS Errors:  Max 8.08E-04 RMS 7.71E-05

Current DIIS subspace size = 5
REM_GRID_RESTART_DIIS = 0

    5     -79.2184831138      7.71E-05  00000
Finding J and K together
 Job number = 22, Threshold = 1.00E-11
Integral type ranges set in mkLRange.C for JobNum: 22  <1-21|1-21>
 MakeJK  time:  CPU       0.16 s  wall       0.16 s
Fock build time:  0.17 s (CPU) 0.16 s (wall)
DIIS Errors:  Max 5.83E-05 RMS 7.60E-06

Current DIIS subspace size = 6
REM_GRID_RESTART_DIIS = 0

    6     -79.2184858927      7.60E-06  00000
Finding J and K together
 Job number = 22, Threshold = 1.00E-11
Integral type ranges set in mkLRange.C for JobNum: 22  <1-21|1-21>
 MakeJK  time:  CPU       0.17 s  wall       0.17 s
Fock build time:  0.17 s (CPU) 0.17 s (wall)
DIIS Errors:  Max 9.83E-06 RMS 1.54E-06

Current DIIS subspace size = 7
REM_GRID_RESTART_DIIS = 0

    7     -79.2184859211      1.54E-06  00000
Finding J and K together
 Job number = 22, Threshold = 1.00E-11
Integral type ranges set in mkLRange.C for JobNum: 22  <1-21|1-21>
 MakeJK  time:  CPU       0.17 s  wall       0.17 s
Fock build time:  0.17 s (CPU) 0.17 s (wall)
DIIS Errors:  Max 2.13E-06 RMS 2.26E-07

Current DIIS subspace size = 8
REM_GRID_RESTART_DIIS = 0

    8     -79.2184859222      2.26E-07  00000
Finding J and K together
 Job number = 22, Threshold = 1.00E-11
Integral type ranges set in mkLRange.C for JobNum: 22  <1-21|1-21>
 MakeJK  time:  CPU       0.16 s  wall       0.16 s
Fock build time:  0.16 s (CPU) 0.17 s (wall)
DIIS Errors:  Max 7.12E-07 RMS 6.97E-08

Current DIIS subspace size = 9
REM_GRID_RESTART_DIIS = 0

    9     -79.2184859222      6.97E-08  00000
Finding J and K together
 Job number = 22, Threshold = 1.00E-11
Integral type ranges set in mkLRange.C for JobNum: 22  <1-21|1-21>
 MakeJK  time:  CPU       0.17 s  wall       0.17 s
Fock build time:  0.17 s (CPU) 0.17 s (wall)
DIIS Errors:  Max 1.80E-07 RMS 1.64E-08

Current DIIS subspace size = 10
REM_GRID_RESTART_DIIS = 0

   10     -79.2184859222      1.64E-08  00000
Finding J and K together
 Job number = 22, Threshold = 1.00E-11
Integral type ranges set in mkLRange.C for JobNum: 22  <1-21|1-21>
 MakeJK  time:  CPU       0.17 s  wall       0.16 s
Fock build time:  0.17 s (CPU) 0.17 s (wall)
DIIS Errors:  Max 1.78E-08 RMS 2.47E-09

Current DIIS subspace size = 11
REM_GRID_RESTART_DIIS = 0

   11     -79.2184859222      2.47E-09  00000 Convergence criterion met
 ---------------------------------------
 SCF time:  CPU 1.82 s  wall 1.83 s
 SCF   energy in the final basis set = -79.21848592
 Total energy in the final basis set = -79.21848592
drvman_main.C: 73: calling DrvMan  Calculating analytic gradient of the SCF energy
drvman.C : 218: Calculating analytic gradient of the SCF energy
drvman.C: 244: calling SCF_Grad for normal SCF gradient
 Job number = 111, Threshold = 1.00E-11
Integral type ranges set in mkLRange.C for JobNum: 11  <1-21|22-22>
Finding J and K together
 ML is being used
 Job number = 122, Threshold = 1.00E-11
Integral type ranges set in mkLRange.C for JobNum: 22  <1-21|1-21>
 MakeJK  time:  CPU       0.77 s  wall       0.76 s
 Gradient of SCF Energy
            1           2           3           4           5           6
[...]
 RMS gradient           =       1.676E-02
drvman.C: 248: out of SCF_Grad for normal SCF gradient
 Gradient time:  CPU 0.77 s  wall 0.76 s
 ------------------------------------------------------------------------------
                     drvman        : Timing summary (seconds)
 ------------------------------------------------------------------------------
     job step          cpu (% of tot)      sys (% of tot)     wall (% of tot)
 ------------------------------------------------------------------------------
 ------------------------------------------------------------------------------
   Grand Totals     0.7720E+00          0.3000E-05          0.7641E+00
 ------------------------------------------------------------------------------
drvman_main.C: 77: out of DrvMan  Time for this dynamics step: 2.6 s (CPU) 2.6 s (wall)

TIME STEP #199 (t = 3960.000 a.u. = 95.78782 fs)
--------------------------------------
 Instantaneous Temperature = 166.3 K
 ----------------------------------------------------------------
             Standard Nuclear Orientation (Angstroms)
    I     Atom           X                Y                Z
 ----------------------------------------------------------------
    1      C      -2.8123460611     2.4931026488    -0.0808618353
    2      C      -1.3288156459     2.4317928609     0.0802913452
    3      H      -3.2073220544     3.4762256175     0.0996970013
    4      H      -3.3367787342     1.8266740721     0.6254762859
    5      H      -3.1658014601     2.2464721897    -1.1108123171
    6      H      -1.0344441280     2.8742426522     1.0362387228
    7      H      -0.7765226517     3.0446482469    -0.6494217615
    8      H      -1.0136460840     1.3385402415     0.0056147638
 ----------------------------------------------------------------
 Nuclear Repulsion Energy =    42.3710977740 hartrees
 There are        9 alpha and        9 beta electrons

                       Distance Matrix (Angstroms)
             C (  1)   C (  2)   H (  3)   H (  4)   H (  5)   H (  6)
   C (  2)  1.493517
   H (  3)  1.074774  2.149419
   H (  4)  1.103662  2.166867  1.736152
   H (  5)  1.116492  2.197177  1.726079  1.794481
   H (  6)  2.134038  1.093733  2.441494  2.562591  3.089759
   H (  7)  2.184500  1.101408  2.579966  3.108655  2.560980  1.713772
   H (  8)  2.139115  1.140224  3.064435  2.453456  2.588923  1.849595
             H (  7)
   H (  8)  1.842852

 Applying Cartesian multipole field
    Component          Value
    ---------          -----
     (2,0,0)        1.00000E-11
     (0,2,0)        2.00000E-11
     (0,0,2)       -3.00000E-10
 Nucleus-field energy     =     0.0000000079 hartrees
 ENuRep (before)= 42.3710977740
 ENucField = 0.0000000079
 ENuRep (after) = 42.3710977819
 Job number = 2, Threshold = 1.00E-11
Integral type ranges set in mkLRange.C for JobNum: 2  <1-21|1-21>
Symmetry turned off temporarily
Symmetry turned back on
 Job number = 11, Threshold = 1.00E-11
Integral type ranges set in mkLRange.C for JobNum: 11  <1-21|22-22>
 Smallest overlap matrix eigenvalue = 7.99E-03
 Multipole matrices computed through 2nd order
 Guess from superposition of atomic densities
 Warning:  Energy on first SCF cycle will be non-variational
 SAD guess density has 18.000000 electrons
 SCF convergence criterion is 10**(-8)
 A restricted Hartree-Fock SCF calculation will be
 performed using Pulay DIIS extrapolation
 SCF converges when DIIS error is below 1.0E-08
Finding J and K together
 Job number = 22, Threshold = 1.00E-11
Integral type ranges set in mkLRange.C for JobNum: 22  <1-21|1-21>
 MakeJK  time:  CPU       0.12 s  wall       0.13 s
Fock build time:  0.12 s (CPU) 0.13 s (wall)
DIIS Errors:  Max 8.60E-01 RMS 1.20E-01

Current DIIS subspace size = 1
REM_GRID_RESTART_DIIS = 0

 ---------------------------------------
  Cycle       Energy         DIIS Error
 ---------------------------------------
    1     -79.6462675741      1.20E-01  00000
Finding J and K together
 Job number = 22, Threshold = 1.00E-11
Integral type ranges set in mkLRange.C for JobNum: 22  <1-21|1-21>
 MakeJK  time:  CPU       0.17 s  wall       0.17 s
Fock build time:  0.17 s (CPU) 0.17 s (wall)
DIIS Errors:  Max 3.93E-02 RMS 8.33E-03

Current DIIS subspace size = 2
REM_GRID_RESTART_DIIS = 0

    2     -79.2021440664      8.33E-03  00000
Finding J and K together
 Job number = 22, Threshold = 1.00E-11
Integral type ranges set in mkLRange.C for JobNum: 22  <1-21|1-21>
 MakeJK  time:  CPU       0.17 s  wall       0.17 s
Fock build time:  0.17 s (CPU) 0.17 s (wall)
DIIS Errors:  Max 1.53E-02 RMS 2.17E-03

Current DIIS subspace size = 3
REM_GRID_RESTART_DIIS = 0

    3     -79.2211235546      2.17E-03  00000
Finding J and K together
 Job number = 22, Threshold = 1.00E-11
Integral type ranges set in mkLRange.C for JobNum: 22  <1-21|1-21>
 MakeJK  time:  CPU       0.17 s  wall       0.17 s
Fock build time:  0.17 s (CPU) 0.17 s (wall)
DIIS Errors:  Max 4.83E-03 RMS 8.08E-04

Current DIIS subspace size = 4
REM_GRID_RESTART_DIIS = 0

    4     -79.2224600879      8.08E-04  00000
Finding J and K together
 Job number = 22, Threshold = 1.00E-11
Integral type ranges set in mkLRange.C for JobNum: 22  <1-21|1-21>
 MakeJK  time:  CPU       0.16 s  wall       0.17 s
Fock build time:  0.16 s (CPU) 0.17 s (wall)
DIIS Errors:  Max 7.93E-04 RMS 7.54E-05

Current DIIS subspace size = 5
REM_GRID_RESTART_DIIS = 0

    5     -79.2226224197      7.54E-05  00000
Finding J and K together
 Job number = 22, Threshold = 1.00E-11
Integral type ranges set in mkLRange.C for JobNum: 22  <1-21|1-21>
 MakeJK  time:  CPU       0.17 s  wall       0.17 s
Fock build time:  0.17 s (CPU) 0.17 s (wall)
DIIS Errors:  Max 6.88E-05 RMS 8.10E-06

Current DIIS subspace size = 6
REM_GRID_RESTART_DIIS = 0

    6     -79.2226249900      8.10E-06  00000
Finding J and K together
 Job number = 22, Threshold = 1.00E-11
Integral type ranges set in mkLRange.C for JobNum: 22  <1-21|1-21>
 MakeJK  time:  CPU       0.17 s  wall       0.17 s
Fock build time:  0.17 s (CPU) 0.17 s (wall)
DIIS Errors:  Max 2.20E-05 RMS 2.52E-06

Current DIIS subspace size = 7
REM_GRID_RESTART_DIIS = 0

    7     -79.2226250182      2.52E-06  00000
Finding J and K together
 Job number = 22, Threshold = 1.00E-11
Integral type ranges set in mkLRange.C for JobNum: 22  <1-21|1-21>
 MakeJK  time:  CPU       0.17 s  wall       0.17 s
Fock build time:  0.17 s (CPU) 0.17 s (wall)
DIIS Errors:  Max 3.86E-06 RMS 5.53E-07

Current DIIS subspace size = 8
REM_GRID_RESTART_DIIS = 0

    8     -79.2226250205      5.53E-07  00000
Finding J and K together
 Job number = 22, Threshold = 1.00E-11
Integral type ranges set in mkLRange.C for JobNum: 22  <1-21|1-21>
 MakeJK  time:  CPU       0.17 s  wall       0.17 s
Fock build time:  0.17 s (CPU) 0.17 s (wall)
DIIS Errors:  Max 7.56E-07 RMS 8.27E-08

Current DIIS subspace size = 9
REM_GRID_RESTART_DIIS = 0

    9     -79.2226250206      8.27E-08  00000
Finding J and K together
 Job number = 22, Threshold = 1.00E-11
Integral type ranges set in mkLRange.C for JobNum: 22  <1-21|1-21>
 MakeJK  time:  CPU       0.17 s  wall       0.17 s
Fock build time:  0.17 s (CPU) 0.17 s (wall)
DIIS Errors:  Max 1.26E-07 RMS 1.75E-08

Current DIIS subspace size = 10
REM_GRID_RESTART_DIIS = 0

   10     -79.2226250206      1.75E-08  00000
Finding J and K together
 Job number = 22, Threshold = 1.00E-11
Integral type ranges set in mkLRange.C for JobNum: 22  <1-21|1-21>
 MakeJK  time:  CPU       0.17 s  wall       0.17 s
Fock build time:  0.17 s (CPU) 0.17 s (wall)
DIIS Errors:  Max 2.08E-08 RMS 2.62E-09

Current DIIS subspace size = 11
REM_GRID_RESTART_DIIS = 0

   11     -79.2226250206      2.62E-09  00000 Convergence criterion met
 ---------------------------------------
 SCF time:  CPU 1.83 s  wall 1.84 s
 SCF   energy in the final basis set = -79.22262502
 Total energy in the final basis set = -79.22262502
drvman_main.C: 73: calling DrvMan  Calculating analytic gradient of the SCF energy
drvman.C : 218: Calculating analytic gradient of the SCF energy
drvman.C: 244: calling SCF_Grad for normal SCF gradient
 Job number = 111, Threshold = 1.00E-11
Integral type ranges set in mkLRange.C for JobNum: 11  <1-21|22-22>
Finding J and K together
 ML is being used
 Job number = 122, Threshold = 1.00E-11
Integral type ranges set in mkLRange.C for JobNum: 22  <1-21|1-21>
 MakeJK  time:  CPU       0.78 s  wall       0.78 s
 Gradient of SCF Energy
            1           2           3           4           5           6
    1   0.0366887  -0.0275121   0.0001600  -0.0077402  -0.0098814   0.0006780
    2   0.0058036   0.0180017  -0.0098571  -0.0046463   0.0018065   0.0126003
    3   0.0161492   0.0005000  -0.0035362   0.0087616  -0.0176727  -0.0001770
            7           8
    1   0.0082517  -0.0006446
    2   0.0119706  -0.0356794
    3   0.0003349  -0.0043597
 Max gradient component =       3.669E-02
 RMS gradient           =       1.453E-02
drvman.C: 248: out of SCF_Grad for normal SCF gradient
 Gradient time:  CPU 0.80 s  wall 0.79 s
 ------------------------------------------------------------------------------
                     drvman        : Timing summary (seconds)
 ------------------------------------------------------------------------------
     job step          cpu (% of tot)      sys (% of tot)     wall (% of tot)
 ------------------------------------------------------------------------------
 ------------------------------------------------------------------------------
   Grand Totals     0.8000E+00          0.3000E-05          0.7943E+00
 ------------------------------------------------------------------------------
drvman_main.C: 77: out of DrvMan  Time for this dynamics step: 2.7 s (CPU) 2.7 s (wall)

TIME STEP #200 (t = 3980.000 a.u. = 96.27160 fs)
--------------------------------------
 Instantaneous Temperature = 208.5 K
 ----------------------------------------------------------------
             Standard Nuclear Orientation (Angstroms)
    I     Atom           X                Y                Z
 ----------------------------------------------------------------
    1      C      -2.8125815276     2.4918064996    -0.0823980881
    2      C      -1.3310745824     2.4305178351     0.0796723193
    3      H      -3.2082142712     3.4939356169     0.1014901196
    4      H      -3.3245820787     1.8304785618     0.6262575819
    5      H      -3.1584444849     2.2453544014    -1.1017553073
    6      H      -1.0312857458     2.8723558431     1.0460526958
    7      H      -0.7703492439     3.0446211692    -0.6456311491
    8      H      -1.0119390049     1.3506718177     0.0060411625
 ----------------------------------------------------------------
 Nuclear Repulsion Energy =    42.3944590024 hartrees
 There are        9 alpha and        9 beta electrons

                       Distance Matrix (Angstroms)
             C (  1)   C (  2)   H (  3)   H (  4)   H (  5)   H (  6)
   C (  2)  1.491605
   H (  3)  1.092979  2.157542
   H (  4)  1.096217  2.152411  1.748145
   H (  5)  1.104287  2.183881  1.734714  1.784868
   H (  6)  2.142716  1.104077  2.453075  2.553614  3.087234
   H (  7)  2.189417  1.103450  2.589065  3.100959  2.559272  1.720336
   H (  8)  2.133617  1.128422  3.070230  2.441967  2.575880  1.843236
             H (  7)
   H (  8)  1.830985

 Applying Cartesian multipole field
    Component          Value
    ---------          -----
     (2,0,0)        1.00000E-11
     (0,2,0)        2.00000E-11
     (0,0,2)       -3.00000E-10
 Nucleus-field energy     =     0.0000000079 hartrees
 ENuRep (before)= 42.3944590024
 ENucField = 0.0000000079
 ENuRep (after) = 42.3944590103
 Job number = 2, Threshold = 1.00E-11
Integral type ranges set in mkLRange.C for JobNum: 2  <1-21|1-21>
Symmetry turned off temporarily
Symmetry turned back on
 Job number = 11, Threshold = 1.00E-11
Integral type ranges set in mkLRange.C for JobNum: 11  <1-21|22-22>
 Smallest overlap matrix eigenvalue = 7.96E-03
 Multipole matrices computed through 2nd order
 Guess from superposition of atomic densities
 Warning:  Energy on first SCF cycle will be non-variational
 SAD guess density has 18.000000 electrons
 SCF convergence criterion is 10**(-8)
 A restricted Hartree-Fock SCF calculation will be
 performed using Pulay DIIS extrapolation
 SCF converges when DIIS error is below 1.0E-08
Finding J and K together
 Job number = 22, Threshold = 1.00E-11
Integral type ranges set in mkLRange.C for JobNum: 22  <1-21|1-21>
 MakeJK  time:  CPU       0.12 s  wall       0.12 s
Fock build time:  0.12 s (CPU) 0.12 s (wall)
DIIS Errors:  Max 8.61E-01 RMS 1.21E-01

Current DIIS subspace size = 1
REM_GRID_RESTART_DIIS = 0

 ---------------------------------------
  Cycle       Energy         DIIS Error
 ---------------------------------------
    1     -79.6499765617      1.21E-01  00000
Finding J and K together
 Job number = 22, Threshold = 1.00E-11
Integral type ranges set in mkLRange.C for JobNum: 22  <1-21|1-21>
 MakeJK  time:  CPU       0.16 s  wall       0.16 s
Fock build time:  0.16 s (CPU) 0.16 s (wall)
DIIS Errors:  Max 3.94E-02 RMS 8.33E-03

Current DIIS subspace size = 2
REM_GRID_RESTART_DIIS = 0

    2     -79.2034000324      8.33E-03  00000
Finding J and K together
 Job number = 22, Threshold = 1.00E-11
Integral type ranges set in mkLRange.C for JobNum: 22  <1-21|1-21>
 MakeJK  time:  CPU       0.16 s  wall       0.16 s
Fock build time:  0.16 s (CPU) 0.16 s (wall)
DIIS Errors:  Max 1.51E-02 RMS 2.17E-03

Current DIIS subspace size = 3
REM_GRID_RESTART_DIIS = 0

    3     -79.2223636962      2.17E-03  00000
Finding J and K together
 Job number = 22, Threshold = 1.00E-11
Integral type ranges set in mkLRange.C for JobNum: 22  <1-21|1-21>
 MakeJK  time:  CPU       0.16 s  wall       0.16 s
Fock build time:  0.16 s (CPU) 0.16 s (wall)
DIIS Errors:  Max 4.79E-03 RMS 8.09E-04

Current DIIS subspace size = 4
REM_GRID_RESTART_DIIS = 0

    4     -79.2236980440      8.09E-04  00000
Finding J and K together
 Job number = 22, Threshold = 1.00E-11
Integral type ranges set in mkLRange.C for JobNum: 22  <1-21|1-21>
 MakeJK  time:  CPU       0.16 s  wall       0.16 s
Fock build time:  0.16 s (CPU) 0.16 s (wall)
DIIS Errors:  Max 8.00E-04 RMS 7.51E-05

Current DIIS subspace size = 5
REM_GRID_RESTART_DIIS = 0

    5     -79.2238603159      7.51E-05  00000
Finding J and K together
 Job number = 22, Threshold = 1.00E-11
Integral type ranges set in mkLRange.C for JobNum: 22  <1-21|1-21>
 MakeJK  time:  CPU       0.16 s  wall       0.16 s
Fock build time:  0.16 s (CPU) 0.16 s (wall)
DIIS Errors:  Max 6.89E-05 RMS 8.04E-06

Current DIIS subspace size = 6
REM_GRID_RESTART_DIIS = 0

    6     -79.2238628601      8.04E-06  00000
Finding J and K together
 Job number = 22, Threshold = 1.00E-11
Integral type ranges set in mkLRange.C for JobNum: 22  <1-21|1-21>
 MakeJK  time:  CPU       0.16 s  wall       0.16 s
Fock build time:  0.16 s (CPU) 0.16 s (wall)
DIIS Errors:  Max 2.22E-05 RMS 2.51E-06

Current DIIS subspace size = 7
REM_GRID_RESTART_DIIS = 0

    7     -79.2238628878      2.51E-06  00000
Finding J and K together
 Job number = 22, Threshold = 1.00E-11
Integral type ranges set in mkLRange.C for JobNum: 22  <1-21|1-21>
 MakeJK  time:  CPU       0.16 s  wall       0.16 s
Fock build time:  0.16 s (CPU) 0.16 s (wall)
DIIS Errors:  Max 4.05E-06 RMS 5.46E-07

Current DIIS subspace size = 8
REM_GRID_RESTART_DIIS = 0

    8     -79.2238628900      5.46E-07  00000
Finding J and K together
 Job number = 22, Threshold = 1.00E-11
Integral type ranges set in mkLRange.C for JobNum: 22  <1-21|1-21>
 MakeJK  time:  CPU       0.16 s  wall       0.16 s
Fock build time:  0.16 s (CPU) 0.16 s (wall)
DIIS Errors:  Max 7.12E-07 RMS 8.09E-08

Current DIIS subspace size = 9
REM_GRID_RESTART_DIIS = 0

    9     -79.2238628901      8.09E-08  00000
Finding J and K together
 Job number = 22, Threshold = 1.00E-11
Integral type ranges set in mkLRange.C for JobNum: 22  <1-21|1-21>
 MakeJK  time:  CPU       0.16 s  wall       0.16 s
Fock build time:  0.16 s (CPU) 0.16 s (wall)
DIIS Errors:  Max 1.20E-07 RMS 1.71E-08

Current DIIS subspace size = 10
REM_GRID_RESTART_DIIS = 0

   10     -79.2238628901      1.71E-08  00000
Finding J and K together
 Job number = 22, Threshold = 1.00E-11
Integral type ranges set in mkLRange.C for JobNum: 22  <1-21|1-21>
 MakeJK  time:  CPU       0.17 s  wall       0.17 s
Fock build time:  0.17 s (CPU) 0.17 s (wall)
DIIS Errors:  Max 1.72E-08 RMS 2.30E-09

Current DIIS subspace size = 11
REM_GRID_RESTART_DIIS = 0

   11     -79.2238628901      2.30E-09  00000 Convergence criterion met
 ---------------------------------------
 SCF time:  CPU 1.77 s  wall 1.77 s
 SCF   energy in the final basis set = -79.22386289
 Total energy in the final basis set = -79.22386289
drvman_main.C: 73: calling DrvMan  Calculating analytic gradient of the SCF energy
drvman.C : 218: Calculating analytic gradient of the SCF energy
drvman.C: 244: calling SCF_Grad for normal SCF gradient
 Job number = 111, Threshold = 1.00E-11
Integral type ranges set in mkLRange.C for JobNum: 11  <1-21|22-22>
Finding J and K together
 ML is being used
 Job number = 122, Threshold = 1.00E-11
Integral type ranges set in mkLRange.C for JobNum: 22  <1-21|1-21>
 MakeJK  time:  CPU       0.79 s  wall       0.78 s
 Gradient of SCF Energy
            1           2           3           4           5           6
    1   0.0354511  -0.0319063  -0.0036505  -0.0042679  -0.0068624   0.0030713
    2  -0.0096731   0.0092140   0.0022830  -0.0023429   0.0030970   0.0146171
    3   0.0099280  -0.0052564  -0.0011682   0.0062426  -0.0113338   0.0056895
            7           8
    1   0.0095696  -0.0014048
    2   0.0120944  -0.0292895
    3  -0.0002796  -0.0038220
 Max gradient component =       3.545E-02
 RMS gradient           =       1.325E-02
drvman.C: 248: out of SCF_Grad for normal SCF gradient
 Gradient time:  CPU 0.81 s  wall 0.80 s
 ------------------------------------------------------------------------------
                     drvman        : Timing summary (seconds)
 ------------------------------------------------------------------------------
     job step          cpu (% of tot)      sys (% of tot)     wall (% of tot)
 ------------------------------------------------------------------------------
 ------------------------------------------------------------------------------
   Grand Totals     0.8080E+00          0.6000E-05          0.7997E+00
 ------------------------------------------------------------------------------
drvman_main.C: 77: out of DrvMan  Time for this dynamics step: 2.6 s (CPU) 2.6 s (wall)

=============== TIME STEPS COMPLETED ==================

Step-to-Step energy fluctuations, |E(n) - E(n-1)|
Mean: 3.598e-07   Max: 6.815e-05   RMS: 3.586e-05
Overall energy fluctuations, |E(n) - E(0)|
Mean: 9.421e-05   Max: 1.995e-04   RMS: 6.034e-05   RMS(dE)/RMS(dV): 2.090e-02
Kinetic energy fluctuations, |T(n) - V(0)|
Mean: -6.393e-03   Max: 1.137e-02   RMS: 2.829e-03
Potential energy fluctuations, |V(n) - V(0)|
Mean: 6.487e-03   Max: 1.157e-02   RMS: 2.887e-03


 JobOver = TRUE
Archival summary:
1\1\qciep03\JobtypUnspecified\HF\6-31G*\26\jcartus\SatApr2118:46:492018SatApr2118:46:492018\0\\#,JobtypUnspecified,HF,6-31G*,\\0,1\C\H,1,1.09298\H,1,1.09622,2,105.98\H,1,1.10429,2,104.274,3,114.32,0\C,1,1.49161,2,112.267,3,-122.132,0\H,5,1.10345,1,114.232,2,-63.9,0\H,5,1.10408,1,110.387,2,50.8313,0\H,5,1.12842,1,108.248,2,172.878,0\\HF=-79.2238629\\@

 Total job time:  511.05s(wall), 511.60s(cpu) 
 Sat Apr 21 18:46:49 2018

        *************************************************************
        *                                                           *
        *  Thank you very much for using Q-Chem.  Have a nice day.  *
        *                                                           *
        *************************************************************


*** MISSION COMPLETED -- STARFLEET OUT ***

0 sent ACK to 0 
now end server 0 ... 
