Process 0 of 1 is on qciep03 - thread support 0
initial socket setup ...start
initial socket setup ...done 
now start server 0 ... 
qciep03.tugraz.at 127.0.1
Q-Chem Developer Version! Running on 127.0.1.*
                  Welcome to Q-Chem
     A Quantum Leap Into The Future Of Chemistry


 Q-Chem 5.0, Q-Chem, Inc., Pleasanton, CA (2017)

 Yihan Shao,  Zhengting Gan,  E. Epifanovsky,  A. T. B. Gilbert,  M. Wormit,  
 J. Kussmann,  A. W. Lange,  A. Behn,  Jia Deng,  Xintian Feng,  D. Ghosh,  
 M. Goldey,  P. R. Horn,  L. D. Jacobson,  I. Kaliman,  T. Kus,  A. Landau,  
 Jie Liu,  E. I. Proynov,  R. M. Richard,  R. P. Steele,  E. J. Sundstrom,  
 H. L. Woodcock III,  P. M. Zimmerman,  D. Zuev,  B. Albrecht,  E. Alguire,  
 S. A. Baeppler,  D. Barton,  Z. Benda,  Y. A. Bernard,  E. J. Berquist,  
 K. B. Bravaya,  H. Burton,  D. Casanova,  Chun-Min Chang,  Yunqing Chen,  
 A. Chien,  K. D. Closser,  M. P. Coons,  S. Dasgupta,  A. L. Dempwolff,  
 M. Diedenhofen,  Hainam Do,  R. G. Edgar,  Po-Tung Fang,  S. Fatehi,  
 Qingguo Feng,  J. Fosso-Tande,  Qinghui Ge,  A. Ghysels,  G. Gidofalvi,  
 J. Gomes,  J. Gonthier,  A. Gunina,  M. W. D. Hanson-Heine,  
 P. H. P. Harbach,  A. W. Hauser,  J. E. Herr,  E. G. Hohenstein,  
 Z. C. Holden,  Kerwin Hui,  T.-C. Jagau,  Hyunjun Ji,  B. Kaduk,  
 K. Khistyaev,  Jaehoon Kim,  P. Klunzinger,  K. Koh,  D. Kosenkov,  
 L. Koulias,  T. Kowalczyk,  C. M. Krauter,  A. Kunitsa,  Ka Un Lao,  
 A. Laurent,  K. V. Lawler,  Joonho Lee,  D. Lefrancois,  S. Lehtola,  
 D. S. Levine,  Yi-Pei Li,  You-Sheng Lin,  Fenglai Liu,  E. Livshits,  
 A. Luenser,  P. Manohar,  E. Mansoor,  S. F. Manzer,  Shan-Ping Mao,  
 Yuezhi Mao,  N. Mardirossian,  A. V. Marenich,  T. Markovich,  
 L. A. Martinez-Martinez,  S. A. Maurer,  N. J. Mayhall,  S. C. McKenzie,  
 J.-M. Mewes,  A. F. Morrison,  J. W. Mullinax,  K. Nanda,  
 T. S. Nguyen-Beck,  R. Olivares-Amaya,  J. A. Parkhill,  T. M. Perrine,  
 F. Plasser,  S. Prager,  A. Prociuk,  E. Ramos,  D. R. Rehn,  F. Rob,  
 M. Schneider,  N. Sergueev,  S. M. Sharada,  S. Sharma,  D. W. Small,  
 T. Stauch,  T. Stein,  Yu-Chuan Su,  A. J. W. Thom,  A. Tkatchenko,  
 T. Tsuchimochi,  L. Vogt,  O. Vydrov,  M. A. Watson,  J. Wenzel,  
 M. de Wergifosse,  T. A. Wesolowski,  A. White,  J. Witte,  A. Yamada,  
 Jun Yang,  K. Yao,  S. Yeganeh,  S. R. Yost,  Zhi-Qiang You,  A. Zech,  
 Igor Ying Zhang,  Xing Zhang,  Yan Zhao,  Ying Zhu,  B. R. Brooks,  
 G. K. L. Chan,  C. J. Cramer,  M. S. Gordon,  W. J. Hehre,  A. Klamt,  
 M. W. Schmidt,  C. D. Sherrill,  D. G. Truhlar,  A. Aspuru-Guzik,  R. Baer,  
 A. T. Bell,  N. A. Besley,  Jeng-Da Chai,  R. A. DiStasio Jr.,  A. Dreuw,  
 B. D. Dunietz,  T. R. Furlani,  Chao-Ping Hsu,  Yousung Jung,  Jing Kong,  
 D. S. Lambrecht,  WanZhen Liang,  C. Ochsenfeld,  V. A. Rassolov,  
 L. V. Slipchenko,  J. E. Subotnik,  T. Van Voorhis,  J. M. Herbert,  
 A. I. Krylov,  P. M. W. Gill,  M. Head-Gordon

 Contributors to earlier versions of Q-Chem not listed above: 
 R. D. Adamson,  B. Austin,  J. Baker,  G. J. O. Beran,  K. Brandhorst,  
 S. T. Brown,  E. F. C. Byrd,  A. K. Chakraborty,  C.-L. Cheng,  
 Siu Hung Chien,  D. M. Chipman,  D. L. Crittenden,  H. Dachsel,  
 R. J. Doerksen,  A. D. Dutoi,  L. Fusti-Molnar,  W. A. Goddard III,  
 A. Golubeva-Zadorozhnaya,  S. R. Gwaltney,  G. Hawkins,  A. Heyden,  
 S. Hirata,  G. Kedziora,  F. J. Keil,  C. Kelley,  Jihan Kim,  R. A. King,  
 R. Z. Khaliullin,  P. P. Korambath,  W. Kurlancheek,  A. M. Lee,  M. S. Lee,  
 S. V. Levchenko,  Ching Yeh Lin,  D. Liotard,  R. C. Lochan,  I. Lotan,  
 P. E. Maslen,  N. Nair,  D. P. O'Neill,  D. Neuhauser,  E. Neuscamman,  
 C. M. Oana,  R. Olson,  B. Peters,  R. Peverati,  P. A. Pieniazek,  
 Y. M. Rhee,  J. Ritchie,  M. A. Rohrdanz,  E. Rosta,  N. J. Russ,  
 H. F. Schaefer III,  N. E. Schultz,  N. Shenvi,  A. C. Simmonett,  A. Sodt,  
 D. Stuck,  K. S. Thanthiriwatte,  V. Vanovschi,  Tao Wang,  A. Warshel,  
 C. F. Williams,  Q. Wu,  X. Xu,  W. Zhang

 Please cite Q-Chem as follows:
 Y. Shao et al., Mol. Phys. 113, 184-215 (2015)
 DOI: 10.1080/00268976.2014.952696

 Q-Chem 5.0.2 for Intel X86 EM64T Linux

 Parts of Q-Chem use Armadillo 5.200.1 (Boston Tea Smuggler).
 http://arma.sourceforge.net/

 Q-Chem begins on Thu Feb  1 12:09:12 2018  


Host: 0

     Scratch files written to /home/jcartus/scratch/16_F3chloromethane-formaldehyde_mono2.dir//
 Using version located at /usr/local/qchem/bin/qchem

 Parallel job on  1  processors

Total Memory Limit in MB = 2000
Mega-Array Size in MB = 192

Checking the input file for inconsistencies... 	...done.
Finally everything over in PARseQInput

--------------------------------------------------------------
User input:
--------------------------------------------------------------
$rem
SCF_PRINT                     1
BASIS                         6-311++g**
SCF_SAVE_MATRICES             1
SCF_CONVERGENCE               5
SCF_FINAL_PRINT               1
METHOD                        hf
JOBTYPE                       sp
$end

$molecule
0 1
O    4.688782228    1.192694165    0.788621015
C    5.236612511    0.16210948    0.46433639
H    6.327564644    0.039937485    0.529623404
H    4.669249211    -0.702665676    0.088392932
$end


--------------------------------------------------------------
 I, IOp=           1           2  D=   3.3132421585964285E-007 Fix sym
 Atom   1: (  0.6781541887, -0.0000514773, -0.0000000877)
         ->(  0.6781541887, -0.0000514773,  0.0000000000)
 I, IOp=           2           2  D=   1.3647159514178856E-006 Fix sym
 Atom   2: ( -0.5332017832,  0.0001466458,  0.0000003611)
         ->( -0.5332017832,  0.0001466458,  0.0000000000)
 I, IOp=           3           2  D=   2.7702592716864467E-006 Fix sym
 Atom   3: ( -1.1128897480,  0.9346662071, -0.0000007330)
         ->( -1.1128897480,  0.9346662071,  0.0000000000)
 I, IOp=           4           2  D=   2.7674427006254918E-006 Fix sym
 Atom   4: ( -1.1131330626, -0.9351342636, -0.0000007322)
         ->( -1.1131330626, -0.9351342636,  0.0000000000)
 ----------------------------------------------------------------
             Standard Nuclear Orientation (Angstroms)
    I     Atom           X                Y                Z
 ----------------------------------------------------------------
    1      O       0.6781541887    -0.0000514773     0.0000000000
    2      C      -0.5332017832     0.0001466458     0.0000000000
    3      H      -1.1128897480     0.9346662071     0.0000000000
    4      H      -1.1131330626    -0.9351342636     0.0000000000
 ----------------------------------------------------------------
 Molecular Point Group                 Cs    NOp =  2
 Largest Abelian Subgroup              Cs    NOp =  2
 Nuclear Repulsion Energy =    31.2145124776 hartrees
 There are        8 alpha and        8 beta electrons
 Requested basis set is 6-311++G(d,p)
 There are 22 shells and 58 basis functions

 Total QAlloc Memory Limit   2000 MB
 Mega-Array Size       188 MB
 MEM_STATIC part       192 MB

finished with qalloc call

                       Distance Matrix (Angstroms)
             O (  1)   C (  2)   H (  3)
   C (  2)  1.211356
   H (  3)  2.020281  1.099711
   H (  4)  2.020666  1.100487  1.869800

 Job number = 2, Threshold = 1.00E-08
Integral type ranges set in mkLRange.C for JobNum: 2  <1-21|1-21>
Symmetry turned off temporarily
 Using the largest function pair in Schwarz integrals
Total number of integrals generated =           28398
Symmetry turned back on
 A cutoff of  1.0D-08 yielded    253 shell pairs
 There are      1785 function pairs (      1914 Cartesian)
 Job number = 11, Threshold = 1.00E-08
Integral type ranges set in mkLRange.C for JobNum: 11  <1-21|22-22>
Total number of integrals generated =            7656
 Smallest overlap matrix eigenvalue = 2.53E-03
 Multipole matrices computed through 2nd order

 Scale SEOQF with 1.000000e-01/1.000000e-01/1.000000e-01

 Standard Electronic Orientation quadrupole field applied
 Nucleus-field energy     =     0.0000000004 hartrees
 ENuRep (before)= 31.2145124776
 ENucField = 0.0000000004
 ENuRep (after) = 31.2145124780
 Guess from superposition of atomic densities
 Warning:  Energy on first SCF cycle will be non-variational
 SAD guess density has 16.000000 electrons

 ==================================================
    GEN_SCFMAN: A general SCF calculation manager  
                                                   
    Authors:                                       
        -- Eric Jon Sundstrom 2008-2014            
        -- Paul Horn 2010-2015                     
        -- Yuezhi Mao 2012-                        
        -- Dmitri Zuev 2014                        
        -- Alec White 2015-                        
        -- David Stuck 2015                        
        -- Shaama M.S. 2015                        
        -- Shane Yost 2015-                         
        -- Joonho Lee 2016-                        
        -- David Small 2016-                       
        -- Daniel Levine 2016-                     
        -- Susi Lehtola 2017-                      
        -- Hugh Burton 2017-                       
 ==================================================
 Hartree-Fock
Finding J and K together
 Job number = 22, Threshold = 1.00E-08
Integral type ranges set in mkLRange.C for JobNum: 22  <1-21|1-21>
 MakeJK  time:  CPU       0.28 s  wall       0.44 s
 HF Exchange:              -13.89875764581826
 One-Electron:             -216.01090131483710
 Total Coulomb:             84.60788261225271
 Nuclear repulsion:         31.21451247796890
 A restricted SCF calculation will be
 performed using DIIS
 SCF converges when DIIS error is below 1.0e-05
 ---------------------------------------
  Cycle       Energy         DIIS error
 ---------------------------------------
Finding J and K together
 Job number = 22, Threshold = 1.00E-08
Integral type ranges set in mkLRange.C for JobNum: 22  <1-21|1-21>
 MakeJK  time:  CPU       0.44 s  wall       0.53 s
 HF Exchange:              -14.14637913187056
 One-Electron:             -217.55377682318655
 Total Coulomb:             86.65638435679361
 Nuclear repulsion:         31.21451247796890
    1    -114.0872638704      8.12e-02  
Finding J and K together
 Job number = 22, Threshold = 1.00E-08
Integral type ranges set in mkLRange.C for JobNum: 22  <1-21|1-21>
 MakeJK  time:  CPU       0.44 s  wall       0.47 s
 HF Exchange:              -13.96008810213428
 One-Electron:             -216.42992529398848
 Total Coulomb:             85.31315116561773
 Nuclear repulsion:         31.21451247796890
    2    -113.8292591203      1.33e-02  
Finding J and K together
 Job number = 22, Threshold = 1.00E-08
Integral type ranges set in mkLRange.C for JobNum: 22  <1-21|1-21>
 MakeJK  time:  CPU       0.44 s  wall       0.45 s
 HF Exchange:              -14.08175340722735
 One-Electron:             -217.23334508347452
 Total Coulomb:             86.20052171752252
 Nuclear repulsion:         31.21451247796890
    3    -113.8623497525      1.14e-02  
Finding J and K together
 Job number = 22, Threshold = 1.00E-08
Integral type ranges set in mkLRange.C for JobNum: 22  <1-21|1-21>
 MakeJK  time:  CPU       0.43 s  wall       0.44 s
 HF Exchange:              -14.07313466007672
 One-Electron:             -217.12948279020574
 Total Coulomb:             86.08728041143542
 Nuclear repulsion:         31.21451247796890
    4    -113.9000642952      9.93e-04  
Finding J and K together
 Job number = 22, Threshold = 1.00E-08
Integral type ranges set in mkLRange.C for JobNum: 22  <1-21|1-21>
 MakeJK  time:  CPU       0.44 s  wall       0.44 s
 HF Exchange:              -14.07730229157855
 One-Electron:             -217.16375575453338
 Total Coulomb:             86.12557271121997
 Nuclear repulsion:         31.21451247796890
    5    -113.9008245609      4.00e-04  
Finding J and K together
 Job number = 22, Threshold = 1.00E-08
Integral type ranges set in mkLRange.C for JobNum: 22  <1-21|1-21>
 MakeJK  time:  CPU       0.43 s  wall       0.44 s
 HF Exchange:              -14.07638323483878
 One-Electron:             -217.15671665719296
 Total Coulomb:             86.11757306008450
 Nuclear repulsion:         31.21451247796890
    6    -113.9009728569      1.68e-04  
Finding J and K together
 Job number = 22, Threshold = 1.00E-08
Integral type ranges set in mkLRange.C for JobNum: 22  <1-21|1-21>
 MakeJK  time:  CPU       0.44 s  wall       0.44 s
 HF Exchange:              -14.07657973964978
 One-Electron:             -217.15878015171745
 Total Coulomb:             86.11982956357159
 Nuclear repulsion:         31.21451247796890
    7    -113.9010143540      6.20e-05  
    8    -113.9010178498      9.14e-06  Convergence criterion met
 ---------------------------------------
 SCF time:   CPU 3.40s  wall 4.00s 
 Total energy in the final basis set =     -113.9010178498
 HF Exchange:              -14.07657973964978
 One-Electron:             -217.15878015171745
 Total Coulomb:             86.11982956357159
 Nuclear repulsion:         31.21451247796890
Wall  1 = 4
Clock 1 = 3.41013288497925
 ==================================================
                  Done GEN_SCFMAN                  
 ==================================================

Symmetry turned off temporarily

 --------------------------------------------------------------
             Orbital Energies (a.u.) and Symmetries
 --------------------------------------------------------------

 Alpha MOs, Restricted
 -- Occupied --                  
-20.580 -11.346  -1.407  -0.874  -0.696  -0.653  -0.536  -0.445
  1 A'    2 A'    3 A'    4 A'    5 A'    6 A'    1 A"    7 A'                 
 -- Virtual --                   
  0.041   0.064   0.073   0.099   0.157   0.160   0.163   0.247
  8 A'    9 A'    2 A"   10 A'    3 A"   11 A'   12 A'   13 A'                 
  0.279   0.299   0.322   0.388   0.389   0.513   0.630   0.637
 14 A'   15 A'    4 A"   16 A'   17 A'   18 A'   19 A'   20 A'                 
  0.699   0.830   0.861   1.028   1.239   1.264   1.321   1.392
  5 A"   21 A'   22 A'   23 A'    6 A"   24 A'    7 A"   25 A'                 
  1.513   1.659   1.678   1.697   1.887   2.011   2.020   2.120
  8 A"   26 A'   27 A'   28 A'   29 A'   30 A'    9 A"   10 A"                 
  2.484   2.690   2.768   2.783   2.941   3.025   3.251   3.279
 31 A'   32 A'   33 A'   34 A'   35 A'   11 A"   12 A"   36 A'                 
  3.722   3.805   3.868   4.098   4.280   5.542   5.644   6.207
 13 A"   37 A'   38 A'   39 A'   40 A'   14 A"   41 A'   42 A'                 
 25.031  51.616
 43 A'   44 A'                                                                 

 Beta MOs, Restricted
 -- Occupied --                  
-20.580 -11.346  -1.407  -0.874  -0.696  -0.653  -0.536  -0.445
  1 A'    2 A'    3 A'    4 A'    5 A'    6 A'    1 A"    7 A'                 
 -- Virtual --                   
  0.041   0.064   0.073   0.099   0.157   0.160   0.163   0.247
  8 A'    9 A'    2 A"   10 A'    3 A"   11 A'   12 A'   13 A'                 
  0.279   0.299   0.322   0.388   0.389   0.513   0.630   0.637
 14 A'   15 A'    4 A"   16 A'   17 A'   18 A'   19 A'   20 A'                 
  0.699   0.830   0.861   1.028   1.239   1.264   1.321   1.392
  5 A"   21 A'   22 A'   23 A'    6 A"   24 A'    7 A"   25 A'                 
  1.513   1.659   1.678   1.697   1.887   2.011   2.020   2.120
  8 A"   26 A'   27 A'   28 A'   29 A'   30 A'    9 A"   10 A"                 
  2.484   2.690   2.768   2.783   2.941   3.025   3.251   3.279
 31 A'   32 A'   33 A'   34 A'   35 A'   11 A"   12 A"   36 A'                 
  3.722   3.805   3.868   4.098   4.280   5.542   5.644   6.207
 13 A"   37 A'   38 A'   39 A'   40 A'   14 A"   41 A'   42 A'                 
 25.031  51.616
 43 A'   44 A'                                                                 
 --------------------------------------------------------------

          Ground-State Mulliken Net Atomic Charges

     Atom                 Charge (a.u.)
  ----------------------------------------
      1 O                    -0.307505
      2 C                     0.118996
      3 H                     0.094349
      4 H                     0.094161
  ----------------------------------------
  Sum of atomic charges =     0.000000

 -----------------------------------------------------------------
                    Cartesian Multipole Moments
 -----------------------------------------------------------------
    Charge (ESU x 10^10)
                 0.0000
    Dipole Moment (Debye)
         X      -2.9777      Y       0.0012      Z       0.0000
       Tot       2.9777
    Quadrupole Moments (Debye-Ang)
        XX     -12.2139     XY      -0.0011     YY     -11.4756
        XZ      -0.0000     YZ      -0.0000     ZZ     -11.7432
    Octopole Moments (Debye-Ang^2)
       XXX      -0.4316    XXY       0.0017    XYY      -0.8976
       YYY       0.0018    XXZ      -0.0000    XYZ       0.0000
       YYZ      -0.0000    XZZ       0.3761    YZZ       0.0011
       ZZZ      -0.0000
    Hexadecapole Moments (Debye-Ang^3)
      XXXX     -45.5012   XXXY      -0.0047   XXYY     -10.0142
      XYYY      -0.0022   YYYY     -17.4968   XXXZ       0.0000
      XXYZ      -0.0000   XYYZ       0.0000   YYYZ      -0.0000
      XXZZ      -9.3634   XYZZ      -0.0014   YYZZ      -5.0046
      XZZZ       0.0000   YZZZ      -0.0000   ZZZZ     -10.4529
 -----------------------------------------------------------------
 Mayer SCF Bond Order, atomic valence on the diagonal:

            1           2           3           4
    1   1.9255379   1.9470394  -0.0108008  -0.0107007
    2   1.9470394   3.8535323   0.9532051   0.9532878
    3  -0.0108008   0.9532051   0.9290162  -0.0133881
    4  -0.0107007   0.9532878  -0.0133881   0.9291991


 JobOver = TRUE
Archival summary:
1\1\qciep03\SP\HF\BasisUnspecified\112\jcartus\ThuFeb112:09:162018ThuFeb112:09:162018\0\\#,HF,BasisUnspecified,\\0,1\C\H,1,1.09971\H,1,1.10049,2,116.387\O,1,1.21136,2,121.821,3,-180,0\\HF=-113.901018\\@

 Total job time:  3.94s(wall), 3.54s(cpu) 
 Thu Feb  1 12:09:16 2018

        *************************************************************
        *                                                           *
        *  Thank you very much for using Q-Chem.  Have a nice day.  *
        *                                                           *
        *************************************************************


*** MISSION COMPLETED -- STARFLEET OUT ***

0 sent ACK to 0 
now end server 0 ... 
