Process 0 of 1 is on qciep03 - thread support 0
initial socket setup ...start
initial socket setup ...done 
now start server 0 ... 
qciep03.tugraz.at 127.0.1
Q-Chem Developer Version! Running on 127.0.1.*
                  Welcome to Q-Chem
     A Quantum Leap Into The Future Of Chemistry


 Q-Chem 5.0, Q-Chem, Inc., Pleasanton, CA (2017)

 Yihan Shao,  Zhengting Gan,  E. Epifanovsky,  A. T. B. Gilbert,  M. Wormit,  
 J. Kussmann,  A. W. Lange,  A. Behn,  Jia Deng,  Xintian Feng,  D. Ghosh,  
 M. Goldey,  P. R. Horn,  L. D. Jacobson,  I. Kaliman,  T. Kus,  A. Landau,  
 Jie Liu,  E. I. Proynov,  R. M. Richard,  R. P. Steele,  E. J. Sundstrom,  
 H. L. Woodcock III,  P. M. Zimmerman,  D. Zuev,  B. Albrecht,  E. Alguire,  
 S. A. Baeppler,  D. Barton,  Z. Benda,  Y. A. Bernard,  E. J. Berquist,  
 K. B. Bravaya,  H. Burton,  D. Casanova,  Chun-Min Chang,  Yunqing Chen,  
 A. Chien,  K. D. Closser,  M. P. Coons,  S. Dasgupta,  A. L. Dempwolff,  
 M. Diedenhofen,  Hainam Do,  R. G. Edgar,  Po-Tung Fang,  S. Fatehi,  
 Qingguo Feng,  J. Fosso-Tande,  Qinghui Ge,  A. Ghysels,  G. Gidofalvi,  
 J. Gomes,  J. Gonthier,  A. Gunina,  M. W. D. Hanson-Heine,  
 P. H. P. Harbach,  A. W. Hauser,  J. E. Herr,  E. G. Hohenstein,  
 Z. C. Holden,  Kerwin Hui,  T.-C. Jagau,  Hyunjun Ji,  B. Kaduk,  
 K. Khistyaev,  Jaehoon Kim,  P. Klunzinger,  K. Koh,  D. Kosenkov,  
 L. Koulias,  T. Kowalczyk,  C. M. Krauter,  A. Kunitsa,  Ka Un Lao,  
 A. Laurent,  K. V. Lawler,  Joonho Lee,  D. Lefrancois,  S. Lehtola,  
 D. S. Levine,  Yi-Pei Li,  You-Sheng Lin,  Fenglai Liu,  E. Livshits,  
 A. Luenser,  P. Manohar,  E. Mansoor,  S. F. Manzer,  Shan-Ping Mao,  
 Yuezhi Mao,  N. Mardirossian,  A. V. Marenich,  T. Markovich,  
 L. A. Martinez-Martinez,  S. A. Maurer,  N. J. Mayhall,  S. C. McKenzie,  
 J.-M. Mewes,  A. F. Morrison,  J. W. Mullinax,  K. Nanda,  
 T. S. Nguyen-Beck,  R. Olivares-Amaya,  J. A. Parkhill,  T. M. Perrine,  
 F. Plasser,  S. Prager,  A. Prociuk,  E. Ramos,  D. R. Rehn,  F. Rob,  
 M. Schneider,  N. Sergueev,  S. M. Sharada,  S. Sharma,  D. W. Small,  
 T. Stauch,  T. Stein,  Yu-Chuan Su,  A. J. W. Thom,  A. Tkatchenko,  
 T. Tsuchimochi,  L. Vogt,  O. Vydrov,  M. A. Watson,  J. Wenzel,  
 M. de Wergifosse,  T. A. Wesolowski,  A. White,  J. Witte,  A. Yamada,  
 Jun Yang,  K. Yao,  S. Yeganeh,  S. R. Yost,  Zhi-Qiang You,  A. Zech,  
 Igor Ying Zhang,  Xing Zhang,  Yan Zhao,  Ying Zhu,  B. R. Brooks,  
 G. K. L. Chan,  C. J. Cramer,  M. S. Gordon,  W. J. Hehre,  A. Klamt,  
 M. W. Schmidt,  C. D. Sherrill,  D. G. Truhlar,  A. Aspuru-Guzik,  R. Baer,  
 A. T. Bell,  N. A. Besley,  Jeng-Da Chai,  R. A. DiStasio Jr.,  A. Dreuw,  
 B. D. Dunietz,  T. R. Furlani,  Chao-Ping Hsu,  Yousung Jung,  Jing Kong,  
 D. S. Lambrecht,  WanZhen Liang,  C. Ochsenfeld,  V. A. Rassolov,  
 L. V. Slipchenko,  J. E. Subotnik,  T. Van Voorhis,  J. M. Herbert,  
 A. I. Krylov,  P. M. W. Gill,  M. Head-Gordon

 Contributors to earlier versions of Q-Chem not listed above: 
 R. D. Adamson,  B. Austin,  J. Baker,  G. J. O. Beran,  K. Brandhorst,  
 S. T. Brown,  E. F. C. Byrd,  A. K. Chakraborty,  C.-L. Cheng,  
 Siu Hung Chien,  D. M. Chipman,  D. L. Crittenden,  H. Dachsel,  
 R. J. Doerksen,  A. D. Dutoi,  L. Fusti-Molnar,  W. A. Goddard III,  
 A. Golubeva-Zadorozhnaya,  S. R. Gwaltney,  G. Hawkins,  A. Heyden,  
 S. Hirata,  G. Kedziora,  F. J. Keil,  C. Kelley,  Jihan Kim,  R. A. King,  
 R. Z. Khaliullin,  P. P. Korambath,  W. Kurlancheek,  A. M. Lee,  M. S. Lee,  
 S. V. Levchenko,  Ching Yeh Lin,  D. Liotard,  R. C. Lochan,  I. Lotan,  
 P. E. Maslen,  N. Nair,  D. P. O'Neill,  D. Neuhauser,  E. Neuscamman,  
 C. M. Oana,  R. Olson,  B. Peters,  R. Peverati,  P. A. Pieniazek,  
 Y. M. Rhee,  J. Ritchie,  M. A. Rohrdanz,  E. Rosta,  N. J. Russ,  
 H. F. Schaefer III,  N. E. Schultz,  N. Shenvi,  A. C. Simmonett,  A. Sodt,  
 D. Stuck,  K. S. Thanthiriwatte,  V. Vanovschi,  Tao Wang,  A. Warshel,  
 C. F. Williams,  Q. Wu,  X. Xu,  W. Zhang

 Please cite Q-Chem as follows:
 Y. Shao et al., Mol. Phys. 113, 184-215 (2015)
 DOI: 10.1080/00268976.2014.952696

 Q-Chem 5.0.2 for Intel X86 EM64T Linux

 Parts of Q-Chem use Armadillo 5.200.1 (Boston Tea Smuggler).
 http://arma.sourceforge.net/

 Q-Chem begins on Thu Feb  1 11:54:26 2018  


Host: 0

     Scratch files written to /home/jcartus/scratch/10_chloromethane-chloromethane_mono1.dir//
 Using version located at /usr/local/qchem/bin/qchem

 Parallel job on  1  processors

Total Memory Limit in MB = 2000
Mega-Array Size in MB = 192

Checking the input file for inconsistencies... 	...done.
Finally everything over in PARseQInput

--------------------------------------------------------------
User input:
--------------------------------------------------------------
$rem
SCF_PRINT                     1
BASIS                         6-311++g**
SCF_SAVE_MATRICES             1
SCF_CONVERGENCE               5
SCF_FINAL_PRINT               1
METHOD                        hf
JOBTYPE                       sp
$end

$molecule
0 1
C    0.301152114    -0.173118099    2.764480435
Cl    -0.024870834    -0.077582132    1.017161127
H    1.247502252    0.314602623    2.964654708
H    0.346131151    -1.217442126    3.048836143
H    -0.501709016    0.328185531    3.291345152
$end


--------------------------------------------------------------
 ----------------------------------------------------------------
             Standard Nuclear Orientation (Angstroms)
    I     Atom           X                Y                Z
 ----------------------------------------------------------------
    1      C       1.1242458521     0.0000047454    -0.0000062362
    2      Cl     -0.6557942732     0.0000070763    -0.0000070475
    3      H       1.4678942282     0.9738176940    -0.3272889284
    4      H       1.4676615256    -0.7704748299    -0.6796538324
    5      H       1.4674717789    -0.2034916329     1.0070999850
 ----------------------------------------------------------------
 Molecular Point Group                 C1    NOp =  1
 Largest Abelian Subgroup              C1    NOp =  1
 Nuclear Repulsion Energy =    51.4486461354 hartrees
 There are       13 alpha and       13 beta electrons
 Requested basis set is 6-311++G(d,p)
 There are 34 shells and 73 basis functions

 Total QAlloc Memory Limit   2000 MB
 Mega-Array Size       188 MB
 MEM_STATIC part       192 MB

finished with qalloc call

                       Distance Matrix (Angstroms)
             C (  1)   Cl(  2)   H (  3)   H (  4)
   Cl(  2)  1.780040
   H (  3)  1.083291  2.359126
   H (  4)  1.083279  2.358946  1.779527
   H (  5)  1.083272  2.358799  1.779509  1.779497

 Job number = 2, Threshold = 1.00E-08
Integral type ranges set in mkLRange.C for JobNum: 2  <1-21|1-21>
Symmetry turned off temporarily
 Using the largest function pair in Schwarz integrals
Total number of integrals generated =           31783
Symmetry turned back on
 A cutoff of  1.0D-08 yielded    584 shell pairs
 There are      2764 function pairs (      2923 Cartesian)
 Job number = 11, Threshold = 1.00E-08
Integral type ranges set in mkLRange.C for JobNum: 11  <1-21|22-22>
Total number of integrals generated =           14570
 Smallest overlap matrix eigenvalue = 4.67E-04
 Multipole matrices computed through 2nd order

 Scale SEOQF with 1.000000e-01/1.000000e-01/1.000000e-01

 Standard Electronic Orientation quadrupole field applied
 Nucleus-field energy     =     0.0000000007 hartrees
 ENuRep (before)= 51.4486461354
 ENucField = 0.0000000007
 ENuRep (after) = 51.4486461361
 Guess from superposition of atomic densities
 Warning:  Energy on first SCF cycle will be non-variational
 SAD guess density has 26.000000 electrons

 ==================================================
    GEN_SCFMAN: A general SCF calculation manager  
                                                   
    Authors:                                       
        -- Eric Jon Sundstrom 2008-2014            
        -- Paul Horn 2010-2015                     
        -- Yuezhi Mao 2012-                        
        -- Dmitri Zuev 2014                        
        -- Alec White 2015-                        
        -- David Stuck 2015                        
        -- Shaama M.S. 2015                        
        -- Shane Yost 2015-                         
        -- Joonho Lee 2016-                        
        -- David Small 2016-                       
        -- Daniel Levine 2016-                     
        -- Susi Lehtola 2017-                      
        -- Hugh Burton 2017-                       
 ==================================================
 Hartree-Fock
Finding J and K together
 Job number = 22, Threshold = 1.00E-08
Integral type ranges set in mkLRange.C for JobNum: 22  <1-21|1-21>
 MakeJK  time:  CPU       0.70 s  wall       0.74 s
 HF Exchange:              -33.74022688552454
 One-Electron:             -788.66030237111215
 Total Coulomb:            271.57175235909847
 Nuclear repulsion:         51.44864613608392
 A restricted SCF calculation will be
 performed using DIIS
 SCF converges when DIIS error is below 1.0e-05
 ---------------------------------------
  Cycle       Energy         DIIS error
 ---------------------------------------
Finding J and K together
 Job number = 22, Threshold = 1.00E-08
Integral type ranges set in mkLRange.C for JobNum: 22  <1-21|1-21>
 MakeJK  time:  CPU       1.16 s  wall       1.29 s
 HF Exchange:              -33.76908259904429
 One-Electron:             -790.33818815666666
 Total Coulomb:            273.54877536443735
 Nuclear repulsion:         51.44864613608392
    1    -499.3801307615      5.84e-02  
Finding J and K together
 Job number = 22, Threshold = 1.00E-08
Integral type ranges set in mkLRange.C for JobNum: 22  <1-21|1-21>
 MakeJK  time:  CPU       1.16 s  wall       1.20 s
 HF Exchange:              -33.80346392755872
 One-Electron:             -790.29247360331567
 Total Coulomb:            273.51829211279403
 Nuclear repulsion:         51.44864613608392
    2    -499.1098492552      4.97e-03  
Finding J and K together
 Job number = 22, Threshold = 1.00E-08
Integral type ranges set in mkLRange.C for JobNum: 22  <1-21|1-21>
 MakeJK  time:  CPU       1.19 s  wall       1.19 s
 HF Exchange:              -33.80613322071083
 One-Electron:             -790.30137872774480
 Total Coulomb:            273.52662120772862
 Nuclear repulsion:         51.44864613608392
    3    -499.1289992820      2.26e-03  
Finding J and K together
 Job number = 22, Threshold = 1.00E-08
Integral type ranges set in mkLRange.C for JobNum: 22  <1-21|1-21>
 MakeJK  time:  CPU       1.17 s  wall       1.19 s
 HF Exchange:              -33.81183101539858
 One-Electron:             -790.31587245281321
 Total Coulomb:            273.54651993261785
 Nuclear repulsion:         51.44864613608392
    4    -499.1322446046      5.02e-04  
Finding J and K together
 Job number = 22, Threshold = 1.00E-08
Integral type ranges set in mkLRange.C for JobNum: 22  <1-21|1-21>
 MakeJK  time:  CPU       1.18 s  wall       1.27 s
 HF Exchange:              -33.81170132761122
 One-Electron:             -790.30623972376304
 Total Coulomb:            273.53674594190170
 Nuclear repulsion:         51.44864613608392
    5    -499.1325373995      8.15e-05  
Finding J and K together
 Job number = 22, Threshold = 1.00E-08
Integral type ranges set in mkLRange.C for JobNum: 22  <1-21|1-21>
 MakeJK  time:  CPU       1.11 s  wall       1.18 s
 HF Exchange:              -33.81192880624074
 One-Electron:             -790.30791002786623
 Total Coulomb:            273.53864288789180
 Nuclear repulsion:         51.44864613608392
    6    -499.1325489734      2.15e-05  
    7    -499.1325498101      6.21e-06  Convergence criterion met
 ---------------------------------------
 SCF time:   CPU 7.78s  wall 8.00s 
 Total energy in the final basis set =     -499.1325498101
 HF Exchange:              -33.81192880624074
 One-Electron:             -790.30791002786623
 Total Coulomb:            273.53864288789180
 Nuclear repulsion:         51.44864613608392
Wall  1 = 8
Clock 1 = 7.80144596099854
 ==================================================
                  Done GEN_SCFMAN                  
 ==================================================

Symmetry turned off temporarily

 --------------------------------------------------------------

                    Orbital Energies (a.u.)
 --------------------------------------------------------------

 Alpha MOs
 -- Occupied --
******* -11.292 -10.550  -8.019  -8.016  -8.016  -1.131  -0.918
 -0.621  -0.621  -0.548  -0.436  -0.436
 -- Virtual --
  0.038   0.071   0.071   0.087   0.140   0.153   0.153   0.157
  0.157   0.175   0.239   0.261   0.282   0.282   0.363   0.537
  0.537   0.551   0.622   0.622   0.683   0.832   0.832   0.863
  1.024   1.063   1.063   1.146   1.162   1.162   1.401   1.401
  1.419   1.683   1.783   1.783   1.984   1.984   1.987   2.251
  2.431   2.431   2.690   2.690   2.757   2.775   2.788   2.788
  2.879   2.879   3.203   3.620   4.121   4.122  10.423  25.022
 26.738  26.738  27.169 219.275
 --------------------------------------------------------------

          Ground-State Mulliken Net Atomic Charges

     Atom                 Charge (a.u.)
  ----------------------------------------
      1 C                    -0.523305
      2 Cl                    0.027524
      3 H                     0.165251
      4 H                     0.165261
      5 H                     0.165270
  ----------------------------------------
  Sum of atomic charges =     0.000000

 -----------------------------------------------------------------
                    Cartesian Multipole Moments
 -----------------------------------------------------------------
    Charge (ESU x 10^10)
                 0.0000
    Dipole Moment (Debye)
         X       2.2540      Y      -0.0001      Z       0.0001
       Tot       2.2540
    Quadrupole Moments (Debye-Ang)
        XX     -18.3690     XY       0.0003     YY     -20.1148
        XZ      -0.0003     YZ       0.0000     ZZ     -20.1149
    Octopole Moments (Debye-Ang^2)
       XXX      -1.3068    XXY       0.0005    XYY       1.2611
       YYY       0.4459    XXZ      -0.0005    XYZ      -0.0000
       YYZ      -0.6549    XZZ       1.2606    YZZ      -0.4463
       ZZZ       0.6553
    Hexadecapole Moments (Debye-Ang^3)
      XXXX    -116.1424   XXXY       0.0018   XXYY     -24.3939
      XYYY       0.6711   YYYY     -28.9895   XXXZ      -0.0018
      XXYZ      -0.0001   XYYZ      -0.9851   YYYZ       0.0002
      XXZZ     -24.3956   XYZZ      -0.6709   YYZZ      -9.6631
      XZZZ       0.9849   YZZZ      -0.0001   ZZZZ     -28.9890
 -----------------------------------------------------------------
 Mayer SCF Bond Order, atomic valence on the diagonal:

            1           2           3           4           5
    1   3.7835535   0.8996633   0.9612851   0.9612976   0.9613075
    2   0.8996633   0.8562840  -0.0144410  -0.0144607  -0.0144776
    3   0.9612851  -0.0144410   0.8986949  -0.0240736  -0.0240756
    4   0.9612976  -0.0144607  -0.0240736   0.8986858  -0.0240774
    5   0.9613075  -0.0144776  -0.0240756  -0.0240774   0.8986769


 JobOver = TRUE
Archival summary:
1\1\qciep03\SP\HF\BasisUnspecified\l113\jcartus\ThuFeb111:54:342018ThuFeb111:54:342018\0\\#,HF,BasisUnspecified,\\0,1\Cl\C,1,1.78004\H,2,1.08327,1,108.472\H,2,1.08328,1,108.483,3,119.992,0\H,2,1.08329,1,108.495,3,-120,0\\HF=-499.13255\\@

 Total job time:  8.50s(wall), 7.97s(cpu) 
 Thu Feb  1 11:54:34 2018

        *************************************************************
        *                                                           *
        *  Thank you very much for using Q-Chem.  Have a nice day.  *
        *                                                           *
        *************************************************************


*** MISSION COMPLETED -- STARFLEET OUT ***

0 sent ACK to 0 
now end server 0 ... 
