Process 0 of 1 is on qciep03 - thread support 0
initial socket setup ...start
initial socket setup ...done 
now start server 0 ... 
qciep03.tugraz.at 127.0.1
Q-Chem Developer Version! Running on 127.0.1.*
                  Welcome to Q-Chem
     A Quantum Leap Into The Future Of Chemistry


 Q-Chem 5.0, Q-Chem, Inc., Pleasanton, CA (2017)

 Yihan Shao,  Zhengting Gan,  E. Epifanovsky,  A. T. B. Gilbert,  M. Wormit,  
 J. Kussmann,  A. W. Lange,  A. Behn,  Jia Deng,  Xintian Feng,  D. Ghosh,  
 M. Goldey,  P. R. Horn,  L. D. Jacobson,  I. Kaliman,  T. Kus,  A. Landau,  
 Jie Liu,  E. I. Proynov,  R. M. Richard,  R. P. Steele,  E. J. Sundstrom,  
 H. L. Woodcock III,  P. M. Zimmerman,  D. Zuev,  B. Albrecht,  E. Alguire,  
 S. A. Baeppler,  D. Barton,  Z. Benda,  Y. A. Bernard,  E. J. Berquist,  
 K. B. Bravaya,  H. Burton,  D. Casanova,  Chun-Min Chang,  Yunqing Chen,  
 A. Chien,  K. D. Closser,  M. P. Coons,  S. Dasgupta,  A. L. Dempwolff,  
 M. Diedenhofen,  Hainam Do,  R. G. Edgar,  Po-Tung Fang,  S. Fatehi,  
 Qingguo Feng,  J. Fosso-Tande,  Qinghui Ge,  A. Ghysels,  G. Gidofalvi,  
 J. Gomes,  J. Gonthier,  A. Gunina,  M. W. D. Hanson-Heine,  
 P. H. P. Harbach,  A. W. Hauser,  J. E. Herr,  E. G. Hohenstein,  
 Z. C. Holden,  Kerwin Hui,  T.-C. Jagau,  Hyunjun Ji,  B. Kaduk,  
 K. Khistyaev,  Jaehoon Kim,  P. Klunzinger,  K. Koh,  D. Kosenkov,  
 L. Koulias,  T. Kowalczyk,  C. M. Krauter,  A. Kunitsa,  Ka Un Lao,  
 A. Laurent,  K. V. Lawler,  Joonho Lee,  D. Lefrancois,  S. Lehtola,  
 D. S. Levine,  Yi-Pei Li,  You-Sheng Lin,  Fenglai Liu,  E. Livshits,  
 A. Luenser,  P. Manohar,  E. Mansoor,  S. F. Manzer,  Shan-Ping Mao,  
 Yuezhi Mao,  N. Mardirossian,  A. V. Marenich,  T. Markovich,  
 L. A. Martinez-Martinez,  S. A. Maurer,  N. J. Mayhall,  S. C. McKenzie,  
 J.-M. Mewes,  A. F. Morrison,  J. W. Mullinax,  K. Nanda,  
 T. S. Nguyen-Beck,  R. Olivares-Amaya,  J. A. Parkhill,  T. M. Perrine,  
 F. Plasser,  S. Prager,  A. Prociuk,  E. Ramos,  D. R. Rehn,  F. Rob,  
 M. Schneider,  N. Sergueev,  S. M. Sharada,  S. Sharma,  D. W. Small,  
 T. Stauch,  T. Stein,  Yu-Chuan Su,  A. J. W. Thom,  A. Tkatchenko,  
 T. Tsuchimochi,  L. Vogt,  O. Vydrov,  M. A. Watson,  J. Wenzel,  
 M. de Wergifosse,  T. A. Wesolowski,  A. White,  J. Witte,  A. Yamada,  
 Jun Yang,  K. Yao,  S. Yeganeh,  S. R. Yost,  Zhi-Qiang You,  A. Zech,  
 Igor Ying Zhang,  Xing Zhang,  Yan Zhao,  Ying Zhu,  B. R. Brooks,  
 G. K. L. Chan,  C. J. Cramer,  M. S. Gordon,  W. J. Hehre,  A. Klamt,  
 M. W. Schmidt,  C. D. Sherrill,  D. G. Truhlar,  A. Aspuru-Guzik,  R. Baer,  
 A. T. Bell,  N. A. Besley,  Jeng-Da Chai,  R. A. DiStasio Jr.,  A. Dreuw,  
 B. D. Dunietz,  T. R. Furlani,  Chao-Ping Hsu,  Yousung Jung,  Jing Kong,  
 D. S. Lambrecht,  WanZhen Liang,  C. Ochsenfeld,  V. A. Rassolov,  
 L. V. Slipchenko,  J. E. Subotnik,  T. Van Voorhis,  J. M. Herbert,  
 A. I. Krylov,  P. M. W. Gill,  M. Head-Gordon

 Contributors to earlier versions of Q-Chem not listed above: 
 R. D. Adamson,  B. Austin,  J. Baker,  G. J. O. Beran,  K. Brandhorst,  
 S. T. Brown,  E. F. C. Byrd,  A. K. Chakraborty,  C.-L. Cheng,  
 Siu Hung Chien,  D. M. Chipman,  D. L. Crittenden,  H. Dachsel,  
 R. J. Doerksen,  A. D. Dutoi,  L. Fusti-Molnar,  W. A. Goddard III,  
 A. Golubeva-Zadorozhnaya,  S. R. Gwaltney,  G. Hawkins,  A. Heyden,  
 S. Hirata,  G. Kedziora,  F. J. Keil,  C. Kelley,  Jihan Kim,  R. A. King,  
 R. Z. Khaliullin,  P. P. Korambath,  W. Kurlancheek,  A. M. Lee,  M. S. Lee,  
 S. V. Levchenko,  Ching Yeh Lin,  D. Liotard,  R. C. Lochan,  I. Lotan,  
 P. E. Maslen,  N. Nair,  D. P. O'Neill,  D. Neuhauser,  E. Neuscamman,  
 C. M. Oana,  R. Olson,  B. Peters,  R. Peverati,  P. A. Pieniazek,  
 Y. M. Rhee,  J. Ritchie,  M. A. Rohrdanz,  E. Rosta,  N. J. Russ,  
 H. F. Schaefer III,  N. E. Schultz,  N. Shenvi,  A. C. Simmonett,  A. Sodt,  
 D. Stuck,  K. S. Thanthiriwatte,  V. Vanovschi,  Tao Wang,  A. Warshel,  
 C. F. Williams,  Q. Wu,  X. Xu,  W. Zhang

 Please cite Q-Chem as follows:
 Y. Shao et al., Mol. Phys. 113, 184-215 (2015)
 DOI: 10.1080/00268976.2014.952696

 Q-Chem 5.0.2 for Intel X86 EM64T Linux

 Parts of Q-Chem use Armadillo 5.200.1 (Boston Tea Smuggler).
 http://arma.sourceforge.net/

 Q-Chem begins on Thu Feb  1 12:23:12 2018  


Host: 0

     Scratch files written to /home/jcartus/scratch/37_HF-mNH2.dir//
 Using version located at /usr/local/qchem/bin/qchem

 Parallel job on  1  processors

Total Memory Limit in MB = 2000
Mega-Array Size in MB = 192

Checking the input file for inconsistencies... 	...done.
Finally everything over in PARseQInput

--------------------------------------------------------------
User input:
--------------------------------------------------------------
$rem
SCF_PRINT                     1
BASIS                         6-311++g**
SCF_SAVE_MATRICES             1
SCF_CONVERGENCE               5
SCF_FINAL_PRINT               1
METHOD                        hf
JOBTYPE                       sp
$end

$molecule
0 1
F    -0.071729041    -0.108855435    0.260652232
H    -0.003218488    -0.010570213    1.202783243
N    0.052011732    0.047562391    2.873452643
H    1.0068262    0.080163433    3.205933085
C    -0.623816269    -1.146237096    3.397788453
H    -1.646683561    -1.160140608    3.032274493
H    -0.124806297    -2.030639328    3.011967991
H    -0.641816332    -1.203100448    4.486612449
H    -0.39708885    0.883158389    3.224595791
$end


--------------------------------------------------------------
 ----------------------------------------------------------------
             Standard Nuclear Orientation (Angstroms)
    I     Atom           X                Y                Z
 ----------------------------------------------------------------
    1      F       1.9337588044    -0.1976960684    -0.0000007576
    2      H       1.0552510121     0.1631204751    -0.0000591046
    3      N      -0.5374573373     0.6738514540    -0.0000146351
    4      H      -0.7364174486     1.2478783115     0.8088022672
    5      C      -1.4013035706    -0.5138347119     0.0000036092
    6      H      -1.1742781123    -1.1136222722    -0.8767891734
    7      H      -1.1739947166    -1.1138235473     0.8765763508
    8      H      -2.4677486336    -0.2862604898     0.0001994684
    9      H      -0.7366185566     1.2480202320    -0.8086421995
 ----------------------------------------------------------------
 Molecular Point Group                 C1    NOp =  1
 Largest Abelian Subgroup              C1    NOp =  1
 Nuclear Repulsion Energy =    79.7254149226 hartrees
 There are       14 alpha and       14 beta electrons
 Requested basis set is 6-311++G(d,p)
 There are 48 shells and 108 basis functions

 Total QAlloc Memory Limit   2000 MB
 Mega-Array Size       188 MB
 MEM_STATIC part       192 MB

finished with qalloc call

                       Distance Matrix (Angstroms)
             F (  1)   H (  2)   N (  3)   H (  4)   C (  5)   H (  6)
   H (  2)  0.949718
   N (  3)  2.620402  1.672593
   H (  4)  3.142243  2.245224  1.011571
   C (  5)  3.350013  2.548123  1.468615  2.049356
   H (  6)  3.356720  2.714687  2.090296  2.934216  1.086302
   H (  7)  3.356458  2.714519  2.090305  2.402853  1.086294  1.753366
   H (  8)  4.402398  3.551545  2.155885  2.450495  1.090456  1.768248
   H (  9)  3.142437  2.245353  1.011540  1.617444  2.049353  2.402820
             H (  7)   H (  8)
   H (  8)  1.768247
   H (  9)  2.934206  2.450521

 Job number = 2, Threshold = 1.00E-08
Integral type ranges set in mkLRange.C for JobNum: 2  <1-21|1-21>
Symmetry turned off temporarily
 Using the largest function pair in Schwarz integrals
Total number of integrals generated =           71263
Symmetry turned back on
 A cutoff of  1.0D-08 yielded   1115 shell pairs
 There are      5627 function pairs (      5941 Cartesian)
 Job number = 11, Threshold = 1.00E-08
Integral type ranges set in mkLRange.C for JobNum: 11  <1-21|22-22>
Total number of integrals generated =           53433
 Smallest overlap matrix eigenvalue = 3.80E-04
 Multipole matrices computed through 2nd order

 Scale SEOQF with 1.000000e-01/1.000000e-01/1.000000e-01

 Standard Electronic Orientation quadrupole field applied
 Nucleus-field energy     =     0.0000000026 hartrees
 ENuRep (before)= 79.7254149226
 ENucField = 0.0000000026
 ENuRep (after) = 79.7254149252
 Guess from superposition of atomic densities
 Warning:  Energy on first SCF cycle will be non-variational
 SAD guess density has 28.000000 electrons

 ==================================================
    GEN_SCFMAN: A general SCF calculation manager  
                                                   
    Authors:                                       
        -- Eric Jon Sundstrom 2008-2014            
        -- Paul Horn 2010-2015                     
        -- Yuezhi Mao 2012-                        
        -- Dmitri Zuev 2014                        
        -- Alec White 2015-                        
        -- David Stuck 2015                        
        -- Shaama M.S. 2015                        
        -- Shane Yost 2015-                         
        -- Joonho Lee 2016-                        
        -- David Small 2016-                       
        -- Daniel Levine 2016-                     
        -- Susi Lehtola 2017-                      
        -- Hugh Burton 2017-                       
 ==================================================
 Hartree-Fock
Finding J and K together
 Job number = 22, Threshold = 1.00E-08
Integral type ranges set in mkLRange.C for JobNum: 22  <1-21|1-21>
 MakeJK  time:  CPU       1.04 s  wall       1.24 s
 HF Exchange:              -23.74336567859801
 One-Electron:             -424.00246221504540
 Total Coulomb:            172.43372317315885
 Nuclear repulsion:         79.72541492520179
 A restricted SCF calculation will be
 performed using DIIS
 SCF converges when DIIS error is below 1.0e-05
 ---------------------------------------
  Cycle       Energy         DIIS error
 ---------------------------------------
Finding J and K together
 Job number = 22, Threshold = 1.00E-08
Integral type ranges set in mkLRange.C for JobNum: 22  <1-21|1-21>
 MakeJK  time:  CPU       2.91 s  wall       3.32 s
 HF Exchange:              -24.11022044509752
 One-Electron:             -427.90348975754540
 Total Coulomb:            177.02217593923683
 Nuclear repulsion:         79.72541492520179
    1    -195.5866897953      5.49e-02  
Finding J and K together
 Job number = 22, Threshold = 1.00E-08
Integral type ranges set in mkLRange.C for JobNum: 22  <1-21|1-21>
 MakeJK  time:  CPU       2.92 s  wall       3.04 s
 HF Exchange:              -23.90987567756505
 One-Electron:             -426.30068228548441
 Total Coulomb:            175.17827716007272
 Nuclear repulsion:         79.72541492520179
    2    -195.2661193382      6.11e-03  
Finding J and K together
 Job number = 22, Threshold = 1.00E-08
Integral type ranges set in mkLRange.C for JobNum: 22  <1-21|1-21>
 MakeJK  time:  CPU       2.94 s  wall       3.21 s
 HF Exchange:              -24.03009283844213
 One-Electron:             -427.05226704742608
 Total Coulomb:            176.04086191761368
 Nuclear repulsion:         79.72541492520179
    3    -195.3068658778      3.48e-03  
Finding J and K together
 Job number = 22, Threshold = 1.00E-08
Integral type ranges set in mkLRange.C for JobNum: 22  <1-21|1-21>
 MakeJK  time:  CPU       2.91 s  wall       3.05 s
 HF Exchange:              -24.02909247250683
 One-Electron:             -427.00327224599266
 Total Coulomb:            175.99036813669699
 Nuclear repulsion:         79.72541492520179
    4    -195.3160830431      5.34e-04  
Finding J and K together
 Job number = 22, Threshold = 1.00E-08
Integral type ranges set in mkLRange.C for JobNum: 22  <1-21|1-21>
 MakeJK  time:  CPU       2.89 s  wall       3.03 s
 HF Exchange:              -24.02953513184098
 One-Electron:             -426.99079951877025
 Total Coulomb:            175.97831195837134
 Nuclear repulsion:         79.72541492520179
    5    -195.3165816566      1.05e-04  
Finding J and K together
 Job number = 22, Threshold = 1.00E-08
Integral type ranges set in mkLRange.C for JobNum: 22  <1-21|1-21>
 MakeJK  time:  CPU       2.95 s  wall       3.06 s
 HF Exchange:              -24.03033844822675
 One-Electron:             -426.99633561002935
 Total Coulomb:            175.98464841492154
 Nuclear repulsion:         79.72541492520179
    6    -195.3166077670      3.72e-05  
Finding J and K together
 Job number = 22, Threshold = 1.00E-08
Integral type ranges set in mkLRange.C for JobNum: 22  <1-21|1-21>
 MakeJK  time:  CPU       2.27 s  wall       2.34 s
 HF Exchange:              -24.03019840616389
 One-Electron:             -426.99389157240773
 Total Coulomb:            175.98206385083111
 Nuclear repulsion:         79.72541492520179
    7    -195.3166107181      1.36e-05  
    8    -195.3166112025      2.71e-06  Convergence criterion met
 ---------------------------------------
 SCF time:   CPU 21.14s  wall 22.00s 
 Total energy in the final basis set =     -195.3166112025
 HF Exchange:              -24.03019840616389
 One-Electron:             -426.99389157240773
 Total Coulomb:            175.98206385083111
 Nuclear repulsion:         79.72541492520179
Wall  1 = 22
Clock 1 = 21.17681121826172
 ==================================================
                  Done GEN_SCFMAN                  
 ==================================================

Symmetry turned off temporarily

 --------------------------------------------------------------

                    Orbital Energies (a.u.)
 --------------------------------------------------------------

 Alpha MOs
 -- Occupied --
-26.222 -15.584 -11.268  -1.527  -1.215  -0.930  -0.717  -0.704
 -0.636  -0.589  -0.581  -0.580  -0.549  -0.444
 -- Virtual --
  0.031   0.054   0.061   0.069   0.093   0.116   0.119   0.149
  0.166   0.178   0.213   0.223   0.243   0.288   0.289   0.297
  0.309   0.338   0.379   0.385   0.401   0.418   0.435   0.496
  0.561   0.582   0.588   0.654   0.711   0.747   0.812   0.840
  0.843   0.898   0.983   1.009   1.046   1.062   1.256   1.260
  1.518   1.532   1.551   1.587   1.640   1.658   1.700   1.727
  1.776   1.806   1.870   1.926   1.960   1.988   2.017   2.064
  2.162   2.211   2.261   2.367   2.440   2.547   2.623   2.730
  2.761   2.783   2.814   2.848   2.961   2.984   2.987   3.042
  3.070   3.149   3.269   3.333   3.504   3.911   4.179   4.204
  4.290   4.290   4.551   4.553   4.624   5.184   5.294   5.371
  6.973   6.989   7.441  25.090  36.993  68.821
 --------------------------------------------------------------

          Ground-State Mulliken Net Atomic Charges

     Atom                 Charge (a.u.)
  ----------------------------------------
      1 F                    -0.412702
      2 H                     0.435303
      3 N                    -0.651762
      4 H                     0.266110
      5 C                    -0.321312
      6 H                     0.152694
      7 H                     0.152697
      8 H                     0.112863
      9 H                     0.266108
  ----------------------------------------
  Sum of atomic charges =    -0.000000

 -----------------------------------------------------------------
                    Cartesian Multipole Moments
 -----------------------------------------------------------------
    Charge (ESU x 10^10)
                -0.0000
    Dipole Moment (Debye)
         X      -4.5769      Y       1.4133      Z       0.0001
       Tot       4.7901
    Quadrupole Moments (Debye-Ang)
        XX     -25.7341     XY       0.3295     YY     -17.4768
        XZ       0.0001     YZ       0.0000     ZZ     -18.0007
    Octopole Moments (Debye-Ang^2)
       XXX      -5.8437    XXY       2.4825    XYY       1.3133
       YYY       3.9581    XXZ      -0.0003    XYZ       0.0002
       YYZ       0.0000    XZZ       2.0445    YZZ       1.9055
       ZZZ       0.0002
    Hexadecapole Moments (Debye-Ang^3)
      XXXX    -280.4661   XXXY      -1.5216   XXYY     -52.8507
      XYYY      -5.5737   YYYY     -59.4151   XXXZ      -0.0004
      XXYZ      -0.0004   XYYZ       0.0008   YYYZ      -0.0010
      XXZZ     -47.5308   XYZZ      -2.4673   YYZZ     -11.3177
      XZZZ       0.0006   YZZZ       0.0009   ZZZZ     -26.0864
 -----------------------------------------------------------------
 Mayer SCF Bond Order, atomic valence on the diagonal:

            1           2           3           4           5           6
    1   0.9396036   0.8930701   0.0494060  -0.0084080   0.0267637  -0.0077391
    2   0.8930701   0.8605852  -0.0124849  -0.0027996  -0.0116349  -0.0033516
    3   0.0494060  -0.0124849   2.6416461   0.9254279   0.8538895  -0.0306987
    4  -0.0084080  -0.0027996   0.9254279   0.8977820  -0.0085425   0.0064412
    5   0.0267637  -0.0116349   0.8538895  -0.0085425   3.7973776   0.9754479
    6  -0.0077391  -0.0033516  -0.0306987   0.0064412   0.9754479   0.8961324
    7  -0.0077353  -0.0033523  -0.0306993  -0.0024418   0.9754470  -0.0174624
    8   0.0026489   0.0039355  -0.0386123  -0.0008433   0.9945450  -0.0240634
    9  -0.0084027  -0.0027970   0.9254180  -0.0110519  -0.0085381  -0.0024414
            7           8           9
    1  -0.0077353   0.0026489  -0.0084027
    2  -0.0033523   0.0039355  -0.0027970
    3  -0.0306993  -0.0386123   0.9254180
    4  -0.0024418  -0.0008433  -0.0110519
    5   0.9754470   0.9945450  -0.0085381
    6  -0.0174624  -0.0240634  -0.0024414
    7   0.8961338  -0.0240632   0.0064409
    8  -0.0240632   0.9127037  -0.0008435
    9   0.0064409  -0.0008435   0.8977844


 JobOver = TRUE
Archival summary:
1\1\qciep03\SP\HF\BasisUnspecified\1116\jcartus\ThuFeb112:23:352018ThuFeb112:23:352018\0\\#,HF,BasisUnspecified,\\0,1\N\H,1,1.01154\H,1,1.01157,2,106.162\C,1,1.46861,2,110.074,3,119.101,0\H,4,1.08629,1,108.881,2,-179.812,0\H,4,1.0863,1,108.88,2,63.125,0\H,4,1.09046,1,113.984,2,-58.3429,0\H,1,1.67259,2,111.149,3,-120.974,0\F,8,0.949718,1,175.451,2,-121.066,0\\HF=-195.316611\\@

 Total job time:  22.96s(wall), 21.43s(cpu) 
 Thu Feb  1 12:23:35 2018

        *************************************************************
        *                                                           *
        *  Thank you very much for using Q-Chem.  Have a nice day.  *
        *                                                           *
        *************************************************************


*** MISSION COMPLETED -- STARFLEET OUT ***

0 sent ACK to 0 
now end server 0 ... 
