Process 0 of 1 is on qciep03 - thread support 0
initial socket setup ...start
initial socket setup ...done 
now start server 0 ... 
qciep03.tugraz.at 127.0.1
Q-Chem Developer Version! Running on 127.0.1.*
                  Welcome to Q-Chem
     A Quantum Leap Into The Future Of Chemistry


 Q-Chem 5.0, Q-Chem, Inc., Pleasanton, CA (2017)

 Yihan Shao,  Zhengting Gan,  E. Epifanovsky,  A. T. B. Gilbert,  M. Wormit,  
 J. Kussmann,  A. W. Lange,  A. Behn,  Jia Deng,  Xintian Feng,  D. Ghosh,  
 M. Goldey,  P. R. Horn,  L. D. Jacobson,  I. Kaliman,  T. Kus,  A. Landau,  
 Jie Liu,  E. I. Proynov,  R. M. Richard,  R. P. Steele,  E. J. Sundstrom,  
 H. L. Woodcock III,  P. M. Zimmerman,  D. Zuev,  B. Albrecht,  E. Alguire,  
 S. A. Baeppler,  D. Barton,  Z. Benda,  Y. A. Bernard,  E. J. Berquist,  
 K. B. Bravaya,  H. Burton,  D. Casanova,  Chun-Min Chang,  Yunqing Chen,  
 A. Chien,  K. D. Closser,  M. P. Coons,  S. Dasgupta,  A. L. Dempwolff,  
 M. Diedenhofen,  Hainam Do,  R. G. Edgar,  Po-Tung Fang,  S. Fatehi,  
 Qingguo Feng,  J. Fosso-Tande,  Qinghui Ge,  A. Ghysels,  G. Gidofalvi,  
 J. Gomes,  J. Gonthier,  A. Gunina,  M. W. D. Hanson-Heine,  
 P. H. P. Harbach,  A. W. Hauser,  J. E. Herr,  E. G. Hohenstein,  
 Z. C. Holden,  Kerwin Hui,  T.-C. Jagau,  Hyunjun Ji,  B. Kaduk,  
 K. Khistyaev,  Jaehoon Kim,  P. Klunzinger,  K. Koh,  D. Kosenkov,  
 L. Koulias,  T. Kowalczyk,  C. M. Krauter,  A. Kunitsa,  Ka Un Lao,  
 A. Laurent,  K. V. Lawler,  Joonho Lee,  D. Lefrancois,  S. Lehtola,  
 D. S. Levine,  Yi-Pei Li,  You-Sheng Lin,  Fenglai Liu,  E. Livshits,  
 A. Luenser,  P. Manohar,  E. Mansoor,  S. F. Manzer,  Shan-Ping Mao,  
 Yuezhi Mao,  N. Mardirossian,  A. V. Marenich,  T. Markovich,  
 L. A. Martinez-Martinez,  S. A. Maurer,  N. J. Mayhall,  S. C. McKenzie,  
 J.-M. Mewes,  A. F. Morrison,  J. W. Mullinax,  K. Nanda,  
 T. S. Nguyen-Beck,  R. Olivares-Amaya,  J. A. Parkhill,  T. M. Perrine,  
 F. Plasser,  S. Prager,  A. Prociuk,  E. Ramos,  D. R. Rehn,  F. Rob,  
 M. Schneider,  N. Sergueev,  S. M. Sharada,  S. Sharma,  D. W. Small,  
 T. Stauch,  T. Stein,  Yu-Chuan Su,  A. J. W. Thom,  A. Tkatchenko,  
 T. Tsuchimochi,  L. Vogt,  O. Vydrov,  M. A. Watson,  J. Wenzel,  
 M. de Wergifosse,  T. A. Wesolowski,  A. White,  J. Witte,  A. Yamada,  
 Jun Yang,  K. Yao,  S. Yeganeh,  S. R. Yost,  Zhi-Qiang You,  A. Zech,  
 Igor Ying Zhang,  Xing Zhang,  Yan Zhao,  Ying Zhu,  B. R. Brooks,  
 G. K. L. Chan,  C. J. Cramer,  M. S. Gordon,  W. J. Hehre,  A. Klamt,  
 M. W. Schmidt,  C. D. Sherrill,  D. G. Truhlar,  A. Aspuru-Guzik,  R. Baer,  
 A. T. Bell,  N. A. Besley,  Jeng-Da Chai,  R. A. DiStasio Jr.,  A. Dreuw,  
 B. D. Dunietz,  T. R. Furlani,  Chao-Ping Hsu,  Yousung Jung,  Jing Kong,  
 D. S. Lambrecht,  WanZhen Liang,  C. Ochsenfeld,  V. A. Rassolov,  
 L. V. Slipchenko,  J. E. Subotnik,  T. Van Voorhis,  J. M. Herbert,  
 A. I. Krylov,  P. M. W. Gill,  M. Head-Gordon

 Contributors to earlier versions of Q-Chem not listed above: 
 R. D. Adamson,  B. Austin,  J. Baker,  G. J. O. Beran,  K. Brandhorst,  
 S. T. Brown,  E. F. C. Byrd,  A. K. Chakraborty,  C.-L. Cheng,  
 Siu Hung Chien,  D. M. Chipman,  D. L. Crittenden,  H. Dachsel,  
 R. J. Doerksen,  A. D. Dutoi,  L. Fusti-Molnar,  W. A. Goddard III,  
 A. Golubeva-Zadorozhnaya,  S. R. Gwaltney,  G. Hawkins,  A. Heyden,  
 S. Hirata,  G. Kedziora,  F. J. Keil,  C. Kelley,  Jihan Kim,  R. A. King,  
 R. Z. Khaliullin,  P. P. Korambath,  W. Kurlancheek,  A. M. Lee,  M. S. Lee,  
 S. V. Levchenko,  Ching Yeh Lin,  D. Liotard,  R. C. Lochan,  I. Lotan,  
 P. E. Maslen,  N. Nair,  D. P. O'Neill,  D. Neuhauser,  E. Neuscamman,  
 C. M. Oana,  R. Olson,  B. Peters,  R. Peverati,  P. A. Pieniazek,  
 Y. M. Rhee,  J. Ritchie,  M. A. Rohrdanz,  E. Rosta,  N. J. Russ,  
 H. F. Schaefer III,  N. E. Schultz,  N. Shenvi,  A. C. Simmonett,  A. Sodt,  
 D. Stuck,  K. S. Thanthiriwatte,  V. Vanovschi,  Tao Wang,  A. Warshel,  
 C. F. Williams,  Q. Wu,  X. Xu,  W. Zhang

 Please cite Q-Chem as follows:
 Y. Shao et al., Mol. Phys. 113, 184-215 (2015)
 DOI: 10.1080/00268976.2014.952696

 Q-Chem 5.0.2 for Intel X86 EM64T Linux

 Parts of Q-Chem use Armadillo 5.200.1 (Boston Tea Smuggler).
 http://arma.sourceforge.net/

 Q-Chem begins on Thu Feb  1 11:53:15 2018  


Host: 0

     Scratch files written to /home/jcartus/scratch/23_benBr-Nm3.dir//
 Using version located at /usr/local/qchem/bin/qchem

 Parallel job on  1  processors

Total Memory Limit in MB = 2000
Mega-Array Size in MB = 192

Checking the input file for inconsistencies... 	...done.
Finally everything over in PARseQInput

--------------------------------------------------------------
User input:
--------------------------------------------------------------
$rem
SCF_PRINT                     1
BASIS                         6-311++g**
SCF_SAVE_MATRICES             1
SCF_CONVERGENCE               5
SCF_FINAL_PRINT               1
METHOD                        hf
JOBTYPE                       sp
$end

$molecule
0 1
C    -0.223913    0.002109    0.127404
C    -0.229554    0.001265    1.520572
C    0.966066    -0.0021    2.235729
C    2.176417    -0.004636    1.545888
C    2.194095    -0.003818    0.152623
C    0.992179    -0.000449    -0.552274
Br    -1.869237    0.004669    2.446186
H    0.946534    -0.002734    3.316252
H    3.10476    -0.007248    2.100804
H    3.135463    -0.005789    -0.378706
H    0.99688    0.000205    -1.633817
H    -1.159029    0.004715    -0.414303
N    -4.443847216    0.003241324    3.917575142
C    -5.269667216    -1.075483676    3.409420142
C    -4.151048216    -0.203416676    5.323037142
C    -5.102631216    1.280426324    3.720892142
H    -5.062163216    -0.220699676    5.941925142
H    -3.629556216    -1.150340676    5.453179142
H    -3.505905216    0.595924324    5.684173142
H    -6.064049216    1.341711324    4.255123142
H    -4.459570216    2.083221324    4.077923142
H    -5.289110216    1.436927324    2.659644142
H    -6.239899216    -1.138941676    3.927201142
H    -5.456675216    -0.924671676    2.347429142
H    -4.750743216    -2.024428676    3.534754142
$end


--------------------------------------------------------------
 ----------------------------------------------------------------
             Standard Nuclear Orientation (Angstroms)
    I     Atom           X                Y                Z
 ----------------------------------------------------------------
    1      C       2.3737317139    -1.2107946293    -0.0003486089
    2      C       1.6805530507    -0.0023028632    -0.0011241449
    3      C       2.3667636994     1.2101666438    -0.0002979311
    4      C       3.7599006854     1.2083496949     0.0013196894
    5      C       4.4635927531     0.0057203258     0.0021041907
    6      C       3.7668392927    -1.2009391635     0.0012709600
    7      Br     -0.2023437894    -0.0076013664    -0.0032735738
    8      H       1.8159652729     2.1399690891    -0.0008984294
    9      H       4.2928939248     2.1494538925     0.0019608729
   10      H       5.5445538315     0.0088324459     0.0033548272
   11      H       4.3052469374    -2.1389554921     0.0018737784
   12      H       1.8283240347    -2.1437604653    -0.0009895749
   13      N      -3.1677342338    -0.0002582596     0.0001029729
   14      C      -3.6339760746    -0.8481972805     1.0805962699
   15      C      -3.6073743491     1.3667158450     0.2047015632
   16      C      -3.6441846905    -0.4989204005    -1.2759115713
   17      H      -4.7052767520     1.4547102163     0.2225595042
   18      H      -3.2176360645     1.7391297012     1.1507289927
   19      H      -3.2254031342     1.9980503597    -0.5959790577
   20      H      -4.7440509940    -0.5095167790    -1.3364509339
   21      H      -3.2619979208     0.1278105414    -2.0800384246
   22      H      -3.2821263892    -1.5140088454    -1.4309068403
   23      H      -4.7332962348    -0.8772358771     1.1448314698
   24      H      -3.2720068763    -1.8641832816     0.9312916129
   25      H      -3.2440938551    -0.4812289002     2.0286539713
 ----------------------------------------------------------------
 Molecular Point Group                 C1    NOp =  1
 Largest Abelian Subgroup              C1    NOp =  1
 Nuclear Repulsion Energy =   856.6154354892 hartrees
 There are       55 alpha and       55 beta electrons
 Requested basis set is 6-311++G(d,p)
 There are 149 shells and 366 basis functions

 Total QAlloc Memory Limit   2000 MB
 Mega-Array Size       188 MB
 MEM_STATIC part       192 MB

finished with qalloc call
 Job number = 2, Threshold = 1.00E-08
Integral type ranges set in mkLRange.C for JobNum: 2  <1-21|1-21>
Symmetry turned off temporarily
 Using the largest function pair in Schwarz integrals
Total number of integrals generated =          660644
Symmetry turned back on
 A cutoff of  1.0D-08 yielded   7708 shell pairs
 There are     46401 function pairs (     49478 Cartesian)
 Job number = 11, Threshold = 1.00E-08
Integral type ranges set in mkLRange.C for JobNum: 11  <1-21|22-22>
Total number of integrals generated =         1233525
 Smallest overlap matrix eigenvalue = 9.28E-07

 Q-Chem warning in module /usr/local/qchem/stvman/mkSTV.C, line 295:

 Overlap eigenvalue is smaller than square root of threshold

 Linear dependence detected in AO basis
 Number of orthogonalized atomic orbitals = 365
 Maximum deviation from orthogonality = 7.705E-11
 Multipole matrices computed through 2nd order

 Scale SEOQF with 1.000000e-02/1.000000e-01/1.000000e-01

 Standard Electronic Orientation quadrupole field applied
 Nucleus-field energy     =     0.0000000058 hartrees
 ENuRep (before)= 856.6154354892
 ENucField = 0.0000000058
 ENuRep (after) = 856.6154354950
 Guess from superposition of atomic densities
 Warning:  Energy on first SCF cycle will be non-variational
 SAD guess density has 110.000000 electrons

 ==================================================
    GEN_SCFMAN: A general SCF calculation manager  
                                                   
    Authors:                                       
        -- Eric Jon Sundstrom 2008-2014            
        -- Paul Horn 2010-2015                     
        -- Yuezhi Mao 2012-                        
        -- Dmitri Zuev 2014                        
        -- Alec White 2015-                        
        -- David Stuck 2015                        
        -- Shaama M.S. 2015                        
        -- Shane Yost 2015-                         
        -- Joonho Lee 2016-                        
        -- David Small 2016-                       
        -- Daniel Levine 2016-                     
        -- Susi Lehtola 2017-                      
        -- Hugh Burton 2017-                       
 ==================================================
 Hartree-Fock
Finding J and K together
 Job number = 22, Threshold = 1.00E-08
Integral type ranges set in mkLRange.C for JobNum: 22  <1-21|1-21>
 MakeJK  time:  CPU      25.64 s  wall      27.07 s
 HF Exchange:              -149.28167999557357
 One-Electron:             -5823.91410576226008
 Total Coulomb:            2136.67135792213003
 Nuclear repulsion:        856.61543549498413
 A restricted SCF calculation will be
 performed using DIIS
 SCF converges when DIIS error is below 1.0e-05
 ---------------------------------------
  Cycle       Energy         DIIS error
 ---------------------------------------
Finding J and K together
 Job number = 22, Threshold = 1.00E-08
Integral type ranges set in mkLRange.C for JobNum: 22  <1-21|1-21>
 MakeJK  time:  CPU     143.07 s  wall     150.99 s
 HF Exchange:              -147.71052349153882
 One-Electron:             -5831.87570660860547
 Total Coulomb:            2147.24078408266087
 Nuclear repulsion:        856.61543549498413
    1   -2979.9089923407      3.36e-02  
Finding J and K together
 Job number = 22, Threshold = 1.00E-08
Integral type ranges set in mkLRange.C for JobNum: 22  <1-21|1-21>
 MakeJK  time:  CPU     146.17 s  wall     156.48 s
 HF Exchange:              -147.93602458507496
 One-Electron:             -5832.59356905365894
 Total Coulomb:            2148.07410127066260
 Nuclear repulsion:        856.61543549498413
    2   -2975.7300105225      2.26e-03  
Finding J and K together
 Job number = 22, Threshold = 1.00E-08
Integral type ranges set in mkLRange.C for JobNum: 22  <1-21|1-21>
 MakeJK  time:  CPU     144.19 s  wall     154.15 s
 HF Exchange:              -147.97716819311694
 One-Electron:             -5832.19837089709745
 Total Coulomb:            2147.70837562014958
 Nuclear repulsion:        856.61543549498413
    3   -2975.8400568731      8.74e-04  
Finding J and K together
 Job number = 22, Threshold = 1.00E-08
Integral type ranges set in mkLRange.C for JobNum: 22  <1-21|1-21>
 MakeJK  time:  CPU     147.82 s  wall     164.83 s
 HF Exchange:              -147.98892152169097
 One-Electron:             -5832.42082641092475
 Total Coulomb:            2147.93814338446919
 Nuclear repulsion:        856.61543549498413
    4   -2975.8517279751      4.76e-04  
Finding J and K together
 Job number = 22, Threshold = 1.00E-08
Integral type ranges set in mkLRange.C for JobNum: 22  <1-21|1-21>
 MakeJK  time:  CPU     147.04 s  wall     147.49 s
 HF Exchange:              -147.99380615679493
 One-Electron:             -5832.39670537803704
 Total Coulomb:            2147.91876088714116
 Nuclear repulsion:        856.61543549498413
    5   -2975.8561690532      8.04e-05  
Finding J and K together
 Job number = 22, Threshold = 1.00E-08
Integral type ranges set in mkLRange.C for JobNum: 22  <1-21|1-21>
 MakeJK  time:  CPU     149.35 s  wall     150.08 s
 HF Exchange:              -147.99371095055102
 One-Electron:             -5832.38144315509999
 Total Coulomb:            2147.90338177330159
 Nuclear repulsion:        856.61543549498413
    6   -2975.8563151527      2.38e-05  
    7   -2975.8563368374      8.28e-06  Convergence criterion met
 ---------------------------------------
 SCF time:   CPU 910.91s  wall 959.00s 
 Total energy in the final basis set =    -2975.8563368374
 HF Exchange:              -147.99371095055102
 One-Electron:             -5832.38144315509999
 Total Coulomb:            2147.90338177330159
 Nuclear repulsion:        856.61543549498413
Wall  1 = 960
Clock 1 = 911.87597656250000
 ==================================================
                  Done GEN_SCFMAN                  
 ==================================================

Symmetry turned off temporarily

 --------------------------------------------------------------

                    Orbital Energies (a.u.)
 --------------------------------------------------------------

 Alpha MOs
 -- Occupied --
******* -65.145 -58.506 -58.504 -58.504 -15.547 -11.287 -11.245
-11.245 -11.244 -11.244 -11.242 -11.240 -11.239 -11.239  -9.825
 -7.439  -7.430  -7.430  -3.179  -3.175  -3.175  -3.164  -3.164
 -1.231  -1.169  -1.065  -1.026  -0.965  -0.952  -0.952  -0.839
 -0.811  -0.808  -0.705  -0.650  -0.638  -0.636  -0.631  -0.631
 -0.598  -0.567  -0.545  -0.545  -0.524  -0.517  -0.508  -0.501
 -0.501  -0.486  -0.428  -0.403  -0.357  -0.345  -0.323
 -- Virtual --
  0.039   0.045   0.048   0.059   0.059   0.060   0.076   0.076
  0.085   0.086   0.092   0.097   0.106   0.107   0.108   0.119
  0.120   0.126   0.147   0.151   0.158   0.158   0.161   0.172
  0.178   0.182   0.182   0.184   0.187   0.191   0.195   0.197
  0.206   0.208   0.210   0.216   0.218   0.220   0.224   0.225
  0.227   0.232   0.233   0.241   0.248   0.249   0.252   0.259
  0.268   0.281   0.288   0.291   0.301   0.304   0.310   0.325
  0.337   0.344   0.346   0.351   0.351   0.362   0.363   0.376
  0.379   0.393   0.398   0.413   0.422   0.424   0.429   0.443
  0.446   0.457   0.465   0.472   0.476   0.500   0.502   0.513
  0.523   0.563   0.564   0.579   0.627   0.639   0.663   0.685
  0.702   0.714   0.719   0.731   0.732   0.736   0.740   0.743
  0.746   0.752   0.761   0.768   0.778   0.789   0.797   0.798
  0.813   0.819   0.836   0.839   0.841   0.861   0.876   0.880
  0.882   0.892   0.901   0.903   0.914   0.930   0.942   0.944
  0.947   0.950   0.988   0.991   0.998   1.020   1.021   1.034
  1.061   1.068   1.082   1.086   1.098   1.102   1.106   1.129
  1.139   1.141   1.188   1.196   1.214   1.221   1.227   1.240
  1.241   1.283   1.285   1.316   1.317   1.355   1.361   1.384
  1.458   1.461   1.511   1.534   1.594   1.596   1.667   1.726
  1.726   1.731   1.759   1.779   1.788   1.793   1.796   1.798
  1.829   1.830   1.837   1.841   1.848   1.854   1.899   1.913
  1.916   1.916   1.919   1.953   1.975   2.008   2.014   2.017
  2.018   2.032   2.051   2.064   2.109   2.132   2.139   2.142
  2.159   2.226   2.227   2.228   2.243   2.261   2.280   2.290
  2.292   2.330   2.342   2.368   2.372   2.374   2.385   2.392
  2.397   2.470   2.471   2.488   2.500   2.524   2.603   2.654
  2.685   2.701   2.750   2.770   2.775   2.798   2.804   2.828
  2.834   2.843   2.863   2.875   2.878   2.888   2.893   2.943
  2.947   2.961   2.980   3.004   3.010   3.013   3.015   3.019
  3.022   3.049   3.052   3.066   3.117   3.123   3.126   3.140
  3.186   3.188   3.196   3.202   3.242   3.247   3.287   3.290
  3.324   3.400   3.453   3.459   3.481   3.593   3.621   3.768
  3.799   3.907   3.930   3.963   3.971   4.041   4.163   4.179
  4.179   4.195   4.195   4.235   4.246   4.250   4.405   4.462
  4.552   4.569   4.580   4.632   4.688   4.753   4.813   5.062
  5.274   5.387   5.387   7.427   8.280   8.390   8.558  24.718
 25.095  25.124  25.133  25.135  25.138  25.234  25.258  25.353
 36.962  49.655 293.962 294.073 294.2651028.631
 --------------------------------------------------------------

          Ground-State Mulliken Net Atomic Charges

     Atom                 Charge (a.u.)
  ----------------------------------------
      1 C                    -0.279415
      2 C                     0.619432
      3 C                    -0.156577
      4 C                    -0.245123
      5 C                    -0.336761
      6 C                    -0.271394
      7 Br                   -0.449666
      8 H                     0.230617
      9 H                     0.207830
     10 H                     0.183824
     11 H                     0.208226
     12 H                     0.228785
     13 N                     0.000732
     14 C                    -0.338215
     15 C                    -0.357361
     16 C                    -0.341187
     17 H                     0.108535
     18 H                     0.130794
     19 H                     0.130412
     20 H                     0.107239
     21 H                     0.128948
     22 H                     0.127638
     23 H                     0.107817
     24 H                     0.126869
     25 H                     0.128000
  ----------------------------------------
  Sum of atomic charges =     0.000000

 -----------------------------------------------------------------
                    Cartesian Multipole Moments
 -----------------------------------------------------------------
    Charge (ESU x 10^10)
                 0.0000
    Dipole Moment (Debye)
         X       0.1076      Y       0.0163      Z       0.0071
       Tot       0.1091
    Quadrupole Moments (Debye-Ang)
        XX     -68.4673     XY      -0.0071     YY     -75.2796
        XZ       0.0074     YZ      -0.0002     ZZ     -85.1937
    Octopole Moments (Debye-Ang^2)
       XXX      11.0005    XXY      -0.1590    XYY       5.8058
       YYY      -1.1244    XXZ       0.0056    XYZ       0.0011
       YYZ      -0.4409    XZZ     -24.8984    YZZ       0.7407
       ZZZ       0.2654
    Hexadecapole Moments (Debye-Ang^3)
      XXXX   -4212.2120   XXXY       0.1798   XXYY    -781.7447
      XYYY       2.3488   YYYY    -474.9749   XXXZ       0.4541
      XXYZ       0.0059   XYYZ       0.9949   YYYZ       0.0306
      XXZZ    -851.8936   XYZZ      -1.8248   YYZZ    -135.4617
      XZZZ      -0.7785   YZZZ      -0.0295   ZZZZ    -261.0159
 -----------------------------------------------------------------
 Mayer SCF Bond Order, atomic valence on the diagonal:

            1           2           3           4           5           6
    1   4.2784722   1.3618066   0.0789922   0.0020817   0.0420045   1.5010663
    2   1.3618066   2.9022825   1.2824898   0.0340257  -0.1373311   0.0136000
    3   0.0789922   1.2824898   4.1019221   1.5121617   0.0069361   0.0047416
    4   0.0020817   0.0340257   1.5121617   4.1102332   1.5993443   0.0418730
    5   0.0420045  -0.1373311   0.0069361   1.5993443   4.2035628   1.6098238
    6   1.5010663   0.0136000   0.0047416   0.0418730   1.6098238   4.0967704
    7   0.4340024   0.2560405   0.3530300   0.0726511   0.0447669   0.0968767
    8   0.0135500   0.0040906   0.8818658  -0.0042481   0.0222851  -0.0191508
    9  -0.0143100   0.0267833  -0.0239314   0.8812490   0.0328086   0.0049448
   10   0.0050355  -0.0065863   0.0057106  -0.0121629   0.9398189  -0.0041089
   11  -0.0222392   0.0337957  -0.0127575   0.0024678   0.0265758   0.8793940
   12   0.8804033   0.0213728   0.0216796  -0.0165507   0.0179959  -0.0286453
   13  -0.0021179  -0.0174175  -0.0049208   0.0019716   0.0006536   0.0035550
   14  -0.0032514   0.0039716   0.0012993  -0.0009177  -0.0006791  -0.0025295
   15   0.0034746   0.0151212  -0.0069968  -0.0020087  -0.0008181  -0.0022252
   16  -0.0024992   0.0023492   0.0006242  -0.0008139  -0.0005161  -0.0016479
   17  -0.0006501   0.0011916   0.0005156  -0.0005138   0.0002859  -0.0001923
   18   0.0004633   0.0010377  -0.0005267  -0.0001905  -0.0002913   0.0000628
   19   0.0002818   0.0017584  -0.0007254  -0.0003655  -0.0002597  -0.0001080
   20  -0.0002115   0.0003043   0.0002241  -0.0002263   0.0003197  -0.0001830
   21   0.0010668   0.0007563   0.0000024  -0.0005805  -0.0001214   0.0007857
   22  -0.0004977   0.0004803   0.0008186   0.0008595  -0.0000564  -0.0006793
   23  -0.0001194   0.0004016   0.0001925  -0.0001875   0.0002735  -0.0003134
   24  -0.0006627   0.0012023   0.0004774   0.0006938  -0.0000575  -0.0006730
   25   0.0008026   0.0010378   0.0000192  -0.0003802  -0.0001991   0.0005032
            7           8           9          10          11          12
    1   0.4340024   0.0135500  -0.0143100   0.0050355  -0.0222392   0.8804033
    2   0.2560405   0.0040906   0.0267833  -0.0065863   0.0337957   0.0213728
    3   0.3530300   0.8818658  -0.0239314   0.0057106  -0.0127575   0.0216796
    4   0.0726511  -0.0042481   0.8812490  -0.0121629   0.0024678  -0.0165507
    5   0.0447669   0.0222851   0.0328086   0.9398189   0.0265758   0.0179959
    6   0.0968767  -0.0191508   0.0049448  -0.0041089   0.8793940  -0.0286453
    7   1.2195560  -0.0147776   0.0014959   0.0002881   0.0013729  -0.0112597
    8  -0.0147776   0.8834635  -0.0006890   0.0013083  -0.0002364   0.0016474
    9   0.0014959  -0.0006890   0.9101818   0.0012466   0.0009844  -0.0002184
   10   0.0002881   0.0013083   0.0012466   0.9335218   0.0012206   0.0013285
   11   0.0013729  -0.0002364   0.0009844   0.0012206   0.9096078  -0.0007467
   12  -0.0112597   0.0016474  -0.0002184   0.0013285  -0.0007467   0.8846527
   13  -0.0091344  -0.0006212   0.0000329   0.0001897  -0.0000102  -0.0006532
   14  -0.0094281  -0.0002860  -0.0001883   0.0001077  -0.0000991  -0.0010020
   15   0.0012962  -0.0011399  -0.0000974   0.0001880  -0.0002371   0.0001927
   16  -0.0160168  -0.0003592  -0.0001701   0.0000935  -0.0001169  -0.0007069
   17  -0.0014777  -0.0001332   0.0000406  -0.0000047   0.0000288  -0.0000161
   18   0.0012134   0.0000766   0.0000272  -0.0000341   0.0000396   0.0000029
   19  -0.0020573  -0.0000752   0.0000291  -0.0000282   0.0000322   0.0000819
   20  -0.0023882  -0.0000598   0.0000355  -0.0000072   0.0000269  -0.0000522
   21   0.0104197   0.0001127   0.0000228  -0.0000164   0.0000033   0.0001127
   22   0.0049266   0.0001183   0.0000083  -0.0000166   0.0000343  -0.0001535
   23  -0.0021253  -0.0000637   0.0000373  -0.0000069   0.0000308  -0.0000815
   24   0.0009562   0.0001813   0.0000118  -0.0000184   0.0000361  -0.0002427
   25   0.0088845   0.0000676   0.0000282  -0.0000238   0.0000076   0.0001641
           13          14          15          16          17          18
    1  -0.0021179  -0.0032514   0.0034746  -0.0024992  -0.0006501   0.0004633
    2  -0.0174175   0.0039716   0.0151212   0.0023492   0.0011916   0.0010377
    3  -0.0049208   0.0012993  -0.0069968   0.0006242   0.0005156  -0.0005267
    4   0.0019716  -0.0009177  -0.0020087  -0.0008139  -0.0005138  -0.0001905
    5   0.0006536  -0.0006791  -0.0008181  -0.0005161   0.0002859  -0.0002913
    6   0.0035550  -0.0025295  -0.0022252  -0.0016479  -0.0001923   0.0000628
    7  -0.0091344  -0.0094281   0.0012962  -0.0160168  -0.0014777   0.0012134
    8  -0.0006212  -0.0002860  -0.0011399  -0.0003592  -0.0001332   0.0000766
    9   0.0000329  -0.0001883  -0.0000974  -0.0001701   0.0000406   0.0000272
   10   0.0001897   0.0001077   0.0001880   0.0000935  -0.0000047  -0.0000341
   11  -0.0000102  -0.0000991  -0.0002371  -0.0001169   0.0000288   0.0000396
   12  -0.0006532  -0.0010020   0.0001927  -0.0007069  -0.0000161   0.0000029
   13   2.0611527   0.8088171   0.8019110   0.8078602  -0.0160167  -0.0463918
   14   0.8088171   3.5772793  -0.1027465  -0.0950307  -0.0089361  -0.0095787
   15   0.8019110  -0.1027465   3.5723116  -0.1096967   1.0016160   1.0097050
   16   0.8078602  -0.0950307  -0.1096967   3.5655752  -0.0090576  -0.0010970
   17  -0.0160167  -0.0089361   1.0016160  -0.0090576   0.9227776  -0.0314551
   18  -0.0463918  -0.0095787   1.0097050  -0.0010970  -0.0314551   0.9191362
   19  -0.0457688  -0.0012455   1.0079795  -0.0082632  -0.0325488  -0.0127102
   20  -0.0167027  -0.0046459  -0.0089601   0.9989617   0.0086083  -0.0002416
   21  -0.0481736   0.0015536  -0.0139064   1.0095875   0.0020802  -0.0003745
   22  -0.0465630  -0.0103714   0.0008021   1.0040256  -0.0005289   0.0023565
   23  -0.0161714   0.9982893  -0.0093105  -0.0044801   0.0082451   0.0021193
   24  -0.0458974   1.0037008   0.0002078  -0.0081013  -0.0003485  -0.0002647
   25  -0.0472776   1.0104759  -0.0120393   0.0006467   0.0020450   0.0051877
           19          20          21          22          23          24
    1   0.0002818  -0.0002115   0.0010668  -0.0004977  -0.0001194  -0.0006627
    2   0.0017584   0.0003043   0.0007563   0.0004803   0.0004016   0.0012023
    3  -0.0007254   0.0002241   0.0000024   0.0008186   0.0001925   0.0004774
    4  -0.0003655  -0.0002263  -0.0005805   0.0008595  -0.0001875   0.0006938
    5  -0.0002597   0.0003197  -0.0001214  -0.0000564   0.0002735  -0.0000575
    6  -0.0001080  -0.0001830   0.0007857  -0.0006793  -0.0003134  -0.0006730
    7  -0.0020573  -0.0023882   0.0104197   0.0049266  -0.0021253   0.0009562
    8  -0.0000752  -0.0000598   0.0001127   0.0001183  -0.0000637   0.0001813
    9   0.0000291   0.0000355   0.0000228   0.0000083   0.0000373   0.0000118
   10  -0.0000282  -0.0000072  -0.0000164  -0.0000166  -0.0000069  -0.0000184
   11   0.0000322   0.0000269   0.0000033   0.0000343   0.0000308   0.0000361
   12   0.0000819  -0.0000522   0.0001127  -0.0001535  -0.0000815  -0.0002427
   13  -0.0457688  -0.0167027  -0.0481736  -0.0465630  -0.0161714  -0.0458974
   14  -0.0012455  -0.0046459   0.0015536  -0.0103714   0.9982893   1.0037008
   15   1.0079795  -0.0089601  -0.0139064   0.0008021  -0.0093105   0.0002078
   16  -0.0082632   0.9989617   1.0095875   1.0040256  -0.0044801  -0.0081013
   17  -0.0325488   0.0086083   0.0020802  -0.0005289   0.0082451  -0.0003485
   18  -0.0127102  -0.0002416  -0.0003745   0.0023565   0.0021193  -0.0002647
   19   0.9142846   0.0020396   0.0046267  -0.0001802  -0.0002330   0.0023740
   20   0.0020396   0.9235076  -0.0318099  -0.0329696   0.0105328   0.0016222
   21   0.0046267  -0.0318099   0.9285402  -0.0095498  -0.0008368   0.0001764
   22  -0.0001802  -0.0329696  -0.0095498   0.9183600   0.0017633   0.0037045
   23  -0.0002330   0.0105328  -0.0008368   0.0017633   0.9225485  -0.0337580
   24   0.0023740   0.0016222   0.0001764   0.0037045  -0.0337580   0.9143038
   25  -0.0003495  -0.0007094   0.0026027   0.0000286  -0.0316497  -0.0110167
           25
    1   0.0008026
    2   0.0010378
    3   0.0000192
    4  -0.0003802
    5  -0.0001991
    6   0.0005032
    7   0.0088845
    8   0.0000676
    9   0.0000282
   10  -0.0000238
   11   0.0000076
   12   0.0001641
   13  -0.0472776
   14   1.0104759
   15  -0.0120393
   16   0.0006467
   17   0.0020450
   18   0.0051877
   19  -0.0003495
   20  -0.0007094
   21   0.0026027
   22   0.0000286
   23  -0.0316497
   24  -0.0110167
   25   0.9288560


 JobOver = TRUE
Archival summary:
1\1\qciep03\SP\HF\BasisUnspecified\r11914\jcartus\ThuFeb112:09:192018ThuFeb112:09:192018\0\\#,HF,BasisUnspecified,\\0,1\Br\C,1,1.88291\C,2,1.39318,1,119.677\H,3,1.08069,2,119.851,1,0,0\C,3,1.39314,2,119.433,1,-179.999,0\H,5,1.08155,3,119.45,2,180,0\C,2,1.39319,1,119.669,3,-179.999,0\H,7,1.0807,2,119.85,1,-0,0\C,7,1.39314,2,119.433,1,179.999,0\H,9,1.08155,7,119.45,2,180,0\C,5,1.39337,3,120.408,2,-0,0\H,11,1.08097,5,120.168,3,-180,0\N,1,2.9654,2,179.67,3,156.684,0\C,13,1.45044,1,107.794,2,14.8184,0\H,14,1.08883,13,109.659,1,-59.2161,0\H,14,1.08884,13,109.658,1,59.6544,0\H,14,1.10157,13,112.313,1,-179.785,0\C,13,1.45046,1,108.714,2,-104.858,0\H,18,1.0888,13,109.664,1,58.6352,0\H,18,1.08883,13,109.663,1,-60.2289,0\H,18,1.10158,13,112.311,1,179.215,0\C,13,1.45048,1,109.064,2,134.7,0\H,22,1.0888,13,109.665,1,-58.8536,0\H,22,1.08881,13,109.665,1,60.0079,0\H,22,1.10158,13,112.31,1,-179.431,0\\HF=-2975.85634\\@

 Total job time:  963.34s(wall), 914.87s(cpu) 
 Thu Feb  1 12:09:19 2018

        *************************************************************
        *                                                           *
        *  Thank you very much for using Q-Chem.  Have a nice day.  *
        *                                                           *
        *************************************************************


*** MISSION COMPLETED -- STARFLEET OUT ***

0 sent ACK to 0 
now end server 0 ... 
