Process 0 of 1 is on qciep03 - thread support 0
initial socket setup ...start
initial socket setup ...done 
now start server 0 ... 
qciep03.tugraz.at 127.0.1
Q-Chem Developer Version! Running on 127.0.1.*
                  Welcome to Q-Chem
     A Quantum Leap Into The Future Of Chemistry


 Q-Chem 5.0, Q-Chem, Inc., Pleasanton, CA (2017)

 Yihan Shao,  Zhengting Gan,  E. Epifanovsky,  A. T. B. Gilbert,  M. Wormit,  
 J. Kussmann,  A. W. Lange,  A. Behn,  Jia Deng,  Xintian Feng,  D. Ghosh,  
 M. Goldey,  P. R. Horn,  L. D. Jacobson,  I. Kaliman,  T. Kus,  A. Landau,  
 Jie Liu,  E. I. Proynov,  R. M. Richard,  R. P. Steele,  E. J. Sundstrom,  
 H. L. Woodcock III,  P. M. Zimmerman,  D. Zuev,  B. Albrecht,  E. Alguire,  
 S. A. Baeppler,  D. Barton,  Z. Benda,  Y. A. Bernard,  E. J. Berquist,  
 K. B. Bravaya,  H. Burton,  D. Casanova,  Chun-Min Chang,  Yunqing Chen,  
 A. Chien,  K. D. Closser,  M. P. Coons,  S. Dasgupta,  A. L. Dempwolff,  
 M. Diedenhofen,  Hainam Do,  R. G. Edgar,  Po-Tung Fang,  S. Fatehi,  
 Qingguo Feng,  J. Fosso-Tande,  Qinghui Ge,  A. Ghysels,  G. Gidofalvi,  
 J. Gomes,  J. Gonthier,  A. Gunina,  M. W. D. Hanson-Heine,  
 P. H. P. Harbach,  A. W. Hauser,  J. E. Herr,  E. G. Hohenstein,  
 Z. C. Holden,  Kerwin Hui,  T.-C. Jagau,  Hyunjun Ji,  B. Kaduk,  
 K. Khistyaev,  Jaehoon Kim,  P. Klunzinger,  K. Koh,  D. Kosenkov,  
 L. Koulias,  T. Kowalczyk,  C. M. Krauter,  A. Kunitsa,  Ka Un Lao,  
 A. Laurent,  K. V. Lawler,  Joonho Lee,  D. Lefrancois,  S. Lehtola,  
 D. S. Levine,  Yi-Pei Li,  You-Sheng Lin,  Fenglai Liu,  E. Livshits,  
 A. Luenser,  P. Manohar,  E. Mansoor,  S. F. Manzer,  Shan-Ping Mao,  
 Yuezhi Mao,  N. Mardirossian,  A. V. Marenich,  T. Markovich,  
 L. A. Martinez-Martinez,  S. A. Maurer,  N. J. Mayhall,  S. C. McKenzie,  
 J.-M. Mewes,  A. F. Morrison,  J. W. Mullinax,  K. Nanda,  
 T. S. Nguyen-Beck,  R. Olivares-Amaya,  J. A. Parkhill,  T. M. Perrine,  
 F. Plasser,  S. Prager,  A. Prociuk,  E. Ramos,  D. R. Rehn,  F. Rob,  
 M. Schneider,  N. Sergueev,  S. M. Sharada,  S. Sharma,  D. W. Small,  
 T. Stauch,  T. Stein,  Yu-Chuan Su,  A. J. W. Thom,  A. Tkatchenko,  
 T. Tsuchimochi,  L. Vogt,  O. Vydrov,  M. A. Watson,  J. Wenzel,  
 M. de Wergifosse,  T. A. Wesolowski,  A. White,  J. Witte,  A. Yamada,  
 Jun Yang,  K. Yao,  S. Yeganeh,  S. R. Yost,  Zhi-Qiang You,  A. Zech,  
 Igor Ying Zhang,  Xing Zhang,  Yan Zhao,  Ying Zhu,  B. R. Brooks,  
 G. K. L. Chan,  C. J. Cramer,  M. S. Gordon,  W. J. Hehre,  A. Klamt,  
 M. W. Schmidt,  C. D. Sherrill,  D. G. Truhlar,  A. Aspuru-Guzik,  R. Baer,  
 A. T. Bell,  N. A. Besley,  Jeng-Da Chai,  R. A. DiStasio Jr.,  A. Dreuw,  
 B. D. Dunietz,  T. R. Furlani,  Chao-Ping Hsu,  Yousung Jung,  Jing Kong,  
 D. S. Lambrecht,  WanZhen Liang,  C. Ochsenfeld,  V. A. Rassolov,  
 L. V. Slipchenko,  J. E. Subotnik,  T. Van Voorhis,  J. M. Herbert,  
 A. I. Krylov,  P. M. W. Gill,  M. Head-Gordon

 Contributors to earlier versions of Q-Chem not listed above: 
 R. D. Adamson,  B. Austin,  J. Baker,  G. J. O. Beran,  K. Brandhorst,  
 S. T. Brown,  E. F. C. Byrd,  A. K. Chakraborty,  C.-L. Cheng,  
 Siu Hung Chien,  D. M. Chipman,  D. L. Crittenden,  H. Dachsel,  
 R. J. Doerksen,  A. D. Dutoi,  L. Fusti-Molnar,  W. A. Goddard III,  
 A. Golubeva-Zadorozhnaya,  S. R. Gwaltney,  G. Hawkins,  A. Heyden,  
 S. Hirata,  G. Kedziora,  F. J. Keil,  C. Kelley,  Jihan Kim,  R. A. King,  
 R. Z. Khaliullin,  P. P. Korambath,  W. Kurlancheek,  A. M. Lee,  M. S. Lee,  
 S. V. Levchenko,  Ching Yeh Lin,  D. Liotard,  R. C. Lochan,  I. Lotan,  
 P. E. Maslen,  N. Nair,  D. P. O'Neill,  D. Neuhauser,  E. Neuscamman,  
 C. M. Oana,  R. Olson,  B. Peters,  R. Peverati,  P. A. Pieniazek,  
 Y. M. Rhee,  J. Ritchie,  M. A. Rohrdanz,  E. Rosta,  N. J. Russ,  
 H. F. Schaefer III,  N. E. Schultz,  N. Shenvi,  A. C. Simmonett,  A. Sodt,  
 D. Stuck,  K. S. Thanthiriwatte,  V. Vanovschi,  Tao Wang,  A. Warshel,  
 C. F. Williams,  Q. Wu,  X. Xu,  W. Zhang

 Please cite Q-Chem as follows:
 Y. Shao et al., Mol. Phys. 113, 184-215 (2015)
 DOI: 10.1080/00268976.2014.952696

 Q-Chem 5.0.2 for Intel X86 EM64T Linux

 Parts of Q-Chem use Armadillo 5.200.1 (Boston Tea Smuggler).
 http://arma.sourceforge.net/

 Q-Chem begins on Thu Feb  1 12:04:19 2018  


Host: 0

     Scratch files written to /home/jcartus/scratch/01_methane-F2.dir//
 Using version located at /usr/local/qchem/bin/qchem

 Parallel job on  1  processors

Total Memory Limit in MB = 2000
Mega-Array Size in MB = 192

Checking the input file for inconsistencies... 	...done.
Finally everything over in PARseQInput

--------------------------------------------------------------
User input:
--------------------------------------------------------------
$rem
SCF_PRINT                     1
BASIS                         6-311++g**
SCF_SAVE_MATRICES             1
SCF_CONVERGENCE               5
SCF_FINAL_PRINT               1
METHOD                        hf
JOBTYPE                       sp
$end

$molecule
0 1
C    -0.099779142    -0.049213106    -0.049809806
H    -0.812383509    0.769437899    -0.053814782
H    -0.386626161    -0.773928179    0.705768112
H    0.890551861    0.333663823    0.175221084
H    -0.089826477    -0.524172039    -1.025860985
F    -1.055049793    -3.072557852    -0.601705876
F    -1.471602008    -4.387243371    -0.835378773
$end


--------------------------------------------------------------
 ----------------------------------------------------------------
             Standard Nuclear Orientation (Angstroms)
    I     Atom           X                Y                Z
 ----------------------------------------------------------------
    1      C      -2.5184576971    -0.0007566455    -0.0000679185
    2      H      -3.0752296419    -0.0108190337    -0.9316870690
    3      H      -1.8811051603    -0.8781095551     0.0491738880
    4      H      -3.2107224403    -0.0104854175     0.8357933235
    5      H      -1.9088567811     0.8962160248     0.0467049329
    6      F       0.6998853239     0.0028340876     0.0001517126
    7      F       2.0986324768    -0.0019743260    -0.0001047752
 ----------------------------------------------------------------
 Molecular Point Group                 C1    NOp =  1
 Largest Abelian Subgroup              C1    NOp =  1
 Nuclear Repulsion Energy =    69.2127685603 hartrees
 There are       14 alpha and       14 beta electrons
 Requested basis set is 6-311++G(d,p)
 There are 38 shells and 94 basis functions

 Total QAlloc Memory Limit   2000 MB
 Mega-Array Size       188 MB
 MEM_STATIC part       192 MB

finished with qalloc call

                       Distance Matrix (Angstroms)
             C (  1)   H (  2)   H (  3)   H (  4)   H (  5)   F (  6)
   H (  2)  1.085362
   H (  3)  1.085537  1.772065
   H (  4)  1.085352  1.772666  1.771842
   H (  5)  1.085523  1.772114  1.774544  1.771898
   F (  6)  3.218345  3.888445  2.727632  3.998916  2.757868
   F (  7)  4.617090  5.257069  4.075335  5.374760  4.107178  1.398755


 Job number = 2, Threshold = 1.00E-08
Integral type ranges set in mkLRange.C for JobNum: 2  <1-21|1-21>
Symmetry turned off temporarily
 Using the largest function pair in Schwarz integrals
Total number of integrals generated =           55772
Symmetry turned back on
 A cutoff of  1.0D-08 yielded    647 shell pairs
 There are      3876 function pairs (      4118 Cartesian)
 Job number = 11, Threshold = 1.00E-08
Integral type ranges set in mkLRange.C for JobNum: 11  <1-21|22-22>
Total number of integrals generated =           28812
 Smallest overlap matrix eigenvalue = 1.27E-03
 Multipole matrices computed through 2nd order

 Scale SEOQF with 1.000000e-01/1.000000e-01/1.000000e-01

 Standard Electronic Orientation quadrupole field applied
 Nucleus-field energy     =     0.0000000038 hartrees
 ENuRep (before)= 69.2127685603
 ENucField = 0.0000000038
 ENuRep (after) = 69.2127685641
 Guess from superposition of atomic densities
 Warning:  Energy on first SCF cycle will be non-variational
 SAD guess density has 28.000000 electrons

 ==================================================
    GEN_SCFMAN: A general SCF calculation manager  
                                                   
    Authors:                                       
        -- Eric Jon Sundstrom 2008-2014            
        -- Paul Horn 2010-2015                     
        -- Yuezhi Mao 2012-                        
        -- Dmitri Zuev 2014                        
        -- Alec White 2015-                        
        -- David Stuck 2015                        
        -- Shaama M.S. 2015                        
        -- Shane Yost 2015-                         
        -- Joonho Lee 2016-                        
        -- David Small 2016-                       
        -- Daniel Levine 2016-                     
        -- Susi Lehtola 2017-                      
        -- Hugh Burton 2017-                       
 ==================================================
 Hartree-Fock
Finding J and K together
 Job number = 22, Threshold = 1.00E-08
Integral type ranges set in mkLRange.C for JobNum: 22  <1-21|1-21>
 MakeJK  time:  CPU       0.59 s  wall       0.64 s
 HF Exchange:              -26.14546326536810
 One-Electron:             -468.34332445839783
 Total Coulomb:            186.45618738943341
 Nuclear repulsion:         69.21276856412669
 A restricted SCF calculation will be
 performed using DIIS
 SCF converges when DIIS error is below 1.0e-05
 ---------------------------------------
  Cycle       Energy         DIIS error
 ---------------------------------------
Finding J and K together
 Job number = 22, Threshold = 1.00E-08
Integral type ranges set in mkLRange.C for JobNum: 22  <1-21|1-21>
 MakeJK  time:  CPU       1.28 s  wall       1.39 s
 HF Exchange:              -26.36855674298404
 One-Electron:             -467.88871696883859
 Total Coulomb:            186.14047536467328
 Nuclear repulsion:         69.21276856412669
    1    -238.8198317702      4.74e-02  
Finding J and K together
 Job number = 22, Threshold = 1.00E-08
Integral type ranges set in mkLRange.C for JobNum: 22  <1-21|1-21>
 MakeJK  time:  CPU       1.29 s  wall       1.40 s
 HF Exchange:              -26.58016119334810
 One-Electron:             -469.28241955879747
 Total Coulomb:            187.71125060221971
 Nuclear repulsion:         69.21276856412669
    2    -238.9040297830      7.04e-03  
Finding J and K together
 Job number = 22, Threshold = 1.00E-08
Integral type ranges set in mkLRange.C for JobNum: 22  <1-21|1-21>
 MakeJK  time:  CPU       1.29 s  wall       1.50 s
 HF Exchange:              -26.53734039859876
 One-Electron:             -468.90026883623898
 Total Coulomb:            187.28286764700411
 Nuclear repulsion:         69.21276856412669
    3    -238.9385615858      2.40e-03  
Finding J and K together
 Job number = 22, Threshold = 1.00E-08
Integral type ranges set in mkLRange.C for JobNum: 22  <1-21|1-21>
 MakeJK  time:  CPU       1.31 s  wall       1.37 s
 HF Exchange:              -26.55090895804666
 One-Electron:             -468.95724412759824
 Total Coulomb:            187.35316293826983
 Nuclear repulsion:         69.21276856412669
    4    -238.9419730237      4.28e-04  
Finding J and K together
 Job number = 22, Threshold = 1.00E-08
Integral type ranges set in mkLRange.C for JobNum: 22  <1-21|1-21>
 MakeJK  time:  CPU       1.27 s  wall       1.31 s
 HF Exchange:              -26.55113043866606
 One-Electron:             -468.95044293367488
 Total Coulomb:            187.34656733585135
 Nuclear repulsion:         69.21276856412669
    5    -238.9422215832      9.66e-05  
Finding J and K together
 Job number = 22, Threshold = 1.00E-08
Integral type ranges set in mkLRange.C for JobNum: 22  <1-21|1-21>
 MakeJK  time:  CPU       1.26 s  wall       1.34 s
 HF Exchange:              -26.55138216439209
 One-Electron:             -468.95064338701127
 Total Coulomb:            187.34701887667464
 Nuclear repulsion:         69.21276856412669
    6    -238.9422374724      1.85e-05  
    7    -238.9422381106      7.65e-06  Convergence criterion met
 ---------------------------------------
 SCF time:   CPU 8.50s  wall 9.00s 
 Total energy in the final basis set =     -238.9422381106
 HF Exchange:              -26.55138216439209
 One-Electron:             -468.95064338701127
 Total Coulomb:            187.34701887667464
 Nuclear repulsion:         69.21276856412669
Wall  1 = 9
Clock 1 = 8.54076290130615
 ==================================================
                  Done GEN_SCFMAN                  
 ==================================================

Symmetry turned off temporarily

 --------------------------------------------------------------

                    Orbital Energies (a.u.)
 --------------------------------------------------------------

 Alpha MOs
 -- Occupied --
-26.435 -26.435 -11.207  -1.780  -1.500  -0.946  -0.818  -0.818
 -0.760  -0.670  -0.670  -0.547  -0.547  -0.546
 -- Virtual --
  0.044   0.077   0.078   0.079   0.086   0.154   0.154   0.156
  0.194   0.254   0.296   0.298   0.308   0.310   0.311   0.337
  0.377   0.408   0.425   0.437   0.554   0.556   0.571   0.600
  0.866   0.876   0.885   0.891   1.042   1.201   1.310   1.435
  1.446   1.498   1.583   1.584   1.726   1.727   1.741   1.744
  1.809   1.814   1.869   1.951   2.206   2.207   2.210   2.217
  2.628   2.687   2.702   2.799   2.801   2.815   2.940   2.948
  2.956   3.275   3.705   3.929   3.932   4.111   4.111   4.155
  4.156   4.213   4.214   4.215   4.368   4.369   5.113   6.735
  6.778   6.786   6.855   6.858   7.189  25.215  68.568  68.623
 --------------------------------------------------------------

          Ground-State Mulliken Net Atomic Charges

     Atom                 Charge (a.u.)
  ----------------------------------------
      1 C                    -0.471562
      2 H                     0.120234
      3 H                     0.111800
      4 H                     0.118615
      5 H                     0.112206
      6 F                     0.026197
      7 F                    -0.017490
  ----------------------------------------
  Sum of atomic charges =    -0.000000

 -----------------------------------------------------------------
                    Cartesian Multipole Moments
 -----------------------------------------------------------------
    Charge (ESU x 10^10)
                -0.0000
    Dipole Moment (Debye)
         X      -0.0280      Y      -0.0001      Z       0.0012
       Tot       0.0280
    Quadrupole Moments (Debye-Ang)
        XX     -17.4528     XY      -0.0009     YY     -17.9213
        XZ      -0.0020     YZ       0.0000     ZZ     -17.9270
    Octopole Moments (Debye-Ang^2)
       XXX      25.3490    XXY      -0.0243    XYY       8.5458
       YYY       0.0395    XXZ       0.1026    XYZ      -0.0012
       YYZ       0.0533    XZZ       7.2081    YZZ      -0.0086
       ZZZ      -0.1501
    Hexadecapole Moments (Debye-Ang^3)
      XXXX    -471.7092   XXXY       0.1039   XXYY     -86.9272
      XYYY      -0.0874   YYYY     -21.2603   XXXZ      -0.8720
      XXYZ       0.0022   XYYZ      -0.0774   YYYZ       0.0007
      XXZZ     -80.1611   XYZZ       0.0343   YYZZ      -7.5756
      XZZZ       0.4394   YZZZ       0.0033   ZZZZ     -21.2155
 -----------------------------------------------------------------
 Mayer SCF Bond Order, atomic valence on the diagonal:

            1           2           3           4           5           6
    1   3.9095667   0.9748706   0.9735557   0.9760079   0.9739369   0.0080449
    2   0.9748706   0.9252112  -0.0164577  -0.0155535  -0.0164626  -0.0014674
    3   0.9735557  -0.0164577   0.9317277  -0.0164544  -0.0147944   0.0050980
    4   0.9760079  -0.0155535  -0.0164544   0.9274544  -0.0164401  -0.0004421
    5   0.9739369  -0.0164626  -0.0147944  -0.0164401   0.9310683   0.0041795
    6   0.0080449  -0.0014674   0.0050980  -0.0004421   0.0041795   1.0763128
    7   0.0031507   0.0002818   0.0007806   0.0003366   0.0006491   1.0608999
            7
    1   0.0031507
    2   0.0002818
    3   0.0007806
    4   0.0003366
    5   0.0006491
    6   1.0608999
    7   1.0660987


 JobOver = TRUE
Archival summary:
1\1\qciep03\SP\HF\BasisUnspecified\214\jcartus\ThuFeb112:04:282018ThuFeb112:04:282018\0\\#,HF,BasisUnspecified,\\0,1\F\F,1,1.39876\H,1,2.72763,2,160.931\C,3,1.08554,1,107.081,2,-179.911,0\H,4,1.08535,3,109.409,1,-125.431,0\H,4,1.08536,3,109.429,1,114.601,0\H,4,1.08552,3,109.643,1,-5.43307,0\\HF=-238.942238\\@

 Total job time:  9.49s(wall), 8.75s(cpu) 
 Thu Feb  1 12:04:28 2018

        *************************************************************
        *                                                           *
        *  Thank you very much for using Q-Chem.  Have a nice day.  *
        *                                                           *
        *************************************************************


*** MISSION COMPLETED -- STARFLEET OUT ***

0 sent ACK to 0 
now end server 0 ... 
