Process 0 of 1 is on qciep03 - thread support 0
initial socket setup ...start
initial socket setup ...done 
now start server 0 ... 
qciep03.tugraz.at 127.0.1
Q-Chem Developer Version! Running on 127.0.1.*
                  Welcome to Q-Chem
     A Quantum Leap Into The Future Of Chemistry


 Q-Chem 5.0, Q-Chem, Inc., Pleasanton, CA (2017)

 Yihan Shao,  Zhengting Gan,  E. Epifanovsky,  A. T. B. Gilbert,  M. Wormit,  
 J. Kussmann,  A. W. Lange,  A. Behn,  Jia Deng,  Xintian Feng,  D. Ghosh,  
 M. Goldey,  P. R. Horn,  L. D. Jacobson,  I. Kaliman,  T. Kus,  A. Landau,  
 Jie Liu,  E. I. Proynov,  R. M. Richard,  R. P. Steele,  E. J. Sundstrom,  
 H. L. Woodcock III,  P. M. Zimmerman,  D. Zuev,  B. Albrecht,  E. Alguire,  
 S. A. Baeppler,  D. Barton,  Z. Benda,  Y. A. Bernard,  E. J. Berquist,  
 K. B. Bravaya,  H. Burton,  D. Casanova,  Chun-Min Chang,  Yunqing Chen,  
 A. Chien,  K. D. Closser,  M. P. Coons,  S. Dasgupta,  A. L. Dempwolff,  
 M. Diedenhofen,  Hainam Do,  R. G. Edgar,  Po-Tung Fang,  S. Fatehi,  
 Qingguo Feng,  J. Fosso-Tande,  Qinghui Ge,  A. Ghysels,  G. Gidofalvi,  
 J. Gomes,  J. Gonthier,  A. Gunina,  M. W. D. Hanson-Heine,  
 P. H. P. Harbach,  A. W. Hauser,  J. E. Herr,  E. G. Hohenstein,  
 Z. C. Holden,  Kerwin Hui,  T.-C. Jagau,  Hyunjun Ji,  B. Kaduk,  
 K. Khistyaev,  Jaehoon Kim,  P. Klunzinger,  K. Koh,  D. Kosenkov,  
 L. Koulias,  T. Kowalczyk,  C. M. Krauter,  A. Kunitsa,  Ka Un Lao,  
 A. Laurent,  K. V. Lawler,  Joonho Lee,  D. Lefrancois,  S. Lehtola,  
 D. S. Levine,  Yi-Pei Li,  You-Sheng Lin,  Fenglai Liu,  E. Livshits,  
 A. Luenser,  P. Manohar,  E. Mansoor,  S. F. Manzer,  Shan-Ping Mao,  
 Yuezhi Mao,  N. Mardirossian,  A. V. Marenich,  T. Markovich,  
 L. A. Martinez-Martinez,  S. A. Maurer,  N. J. Mayhall,  S. C. McKenzie,  
 J.-M. Mewes,  A. F. Morrison,  J. W. Mullinax,  K. Nanda,  
 T. S. Nguyen-Beck,  R. Olivares-Amaya,  J. A. Parkhill,  T. M. Perrine,  
 F. Plasser,  S. Prager,  A. Prociuk,  E. Ramos,  D. R. Rehn,  F. Rob,  
 M. Schneider,  N. Sergueev,  S. M. Sharada,  S. Sharma,  D. W. Small,  
 T. Stauch,  T. Stein,  Yu-Chuan Su,  A. J. W. Thom,  A. Tkatchenko,  
 T. Tsuchimochi,  L. Vogt,  O. Vydrov,  M. A. Watson,  J. Wenzel,  
 M. de Wergifosse,  T. A. Wesolowski,  A. White,  J. Witte,  A. Yamada,  
 Jun Yang,  K. Yao,  S. Yeganeh,  S. R. Yost,  Zhi-Qiang You,  A. Zech,  
 Igor Ying Zhang,  Xing Zhang,  Yan Zhao,  Ying Zhu,  B. R. Brooks,  
 G. K. L. Chan,  C. J. Cramer,  M. S. Gordon,  W. J. Hehre,  A. Klamt,  
 M. W. Schmidt,  C. D. Sherrill,  D. G. Truhlar,  A. Aspuru-Guzik,  R. Baer,  
 A. T. Bell,  N. A. Besley,  Jeng-Da Chai,  R. A. DiStasio Jr.,  A. Dreuw,  
 B. D. Dunietz,  T. R. Furlani,  Chao-Ping Hsu,  Yousung Jung,  Jing Kong,  
 D. S. Lambrecht,  WanZhen Liang,  C. Ochsenfeld,  V. A. Rassolov,  
 L. V. Slipchenko,  J. E. Subotnik,  T. Van Voorhis,  J. M. Herbert,  
 A. I. Krylov,  P. M. W. Gill,  M. Head-Gordon

 Contributors to earlier versions of Q-Chem not listed above: 
 R. D. Adamson,  B. Austin,  J. Baker,  G. J. O. Beran,  K. Brandhorst,  
 S. T. Brown,  E. F. C. Byrd,  A. K. Chakraborty,  C.-L. Cheng,  
 Siu Hung Chien,  D. M. Chipman,  D. L. Crittenden,  H. Dachsel,  
 R. J. Doerksen,  A. D. Dutoi,  L. Fusti-Molnar,  W. A. Goddard III,  
 A. Golubeva-Zadorozhnaya,  S. R. Gwaltney,  G. Hawkins,  A. Heyden,  
 S. Hirata,  G. Kedziora,  F. J. Keil,  C. Kelley,  Jihan Kim,  R. A. King,  
 R. Z. Khaliullin,  P. P. Korambath,  W. Kurlancheek,  A. M. Lee,  M. S. Lee,  
 S. V. Levchenko,  Ching Yeh Lin,  D. Liotard,  R. C. Lochan,  I. Lotan,  
 P. E. Maslen,  N. Nair,  D. P. O'Neill,  D. Neuhauser,  E. Neuscamman,  
 C. M. Oana,  R. Olson,  B. Peters,  R. Peverati,  P. A. Pieniazek,  
 Y. M. Rhee,  J. Ritchie,  M. A. Rohrdanz,  E. Rosta,  N. J. Russ,  
 H. F. Schaefer III,  N. E. Schultz,  N. Shenvi,  A. C. Simmonett,  A. Sodt,  
 D. Stuck,  K. S. Thanthiriwatte,  V. Vanovschi,  Tao Wang,  A. Warshel,  
 C. F. Williams,  Q. Wu,  X. Xu,  W. Zhang

 Please cite Q-Chem as follows:
 Y. Shao et al., Mol. Phys. 113, 184-215 (2015)
 DOI: 10.1080/00268976.2014.952696

 Q-Chem 5.0.2 for Intel X86 EM64T Linux

 Parts of Q-Chem use Armadillo 5.200.1 (Boston Tea Smuggler).
 http://arma.sourceforge.net/

 Q-Chem begins on Thu Feb  1 12:04:13 2018  


Host: 0

     Scratch files written to /home/jcartus/scratch/07_trifluoromethane-methane_mono2.dir//
 Using version located at /usr/local/qchem/bin/qchem

 Parallel job on  1  processors

Total Memory Limit in MB = 2000
Mega-Array Size in MB = 192

Checking the input file for inconsistencies... 	...done.
Finally everything over in PARseQInput

--------------------------------------------------------------
User input:
--------------------------------------------------------------
$rem
SCF_PRINT                     1
BASIS                         6-311++g**
SCF_SAVE_MATRICES             1
SCF_CONVERGENCE               5
SCF_FINAL_PRINT               1
METHOD                        hf
JOBTYPE                       sp
$end

$molecule
0 1
C    -1.0064e-05    -8.2573e-05    -1.743091435
H    -3.612e-06    0.000105999    -2.828619365
H    -0.885658535    -0.511600583    -1.379811314
H    0.885727513    -0.511445556    -1.379800941
H    -0.00010144    1.022550877    -1.379525404
$end


--------------------------------------------------------------
 ----------------------------------------------------------------
             Standard Nuclear Orientation (Angstroms)
    I     Atom           X                Y                Z
 ----------------------------------------------------------------
    1      C      -0.0004608792     0.0000052810    -0.0000001950
    2      H      -1.0859880441    -0.0012894502    -0.0001427137
    3      H       0.3632976910    -0.4244157390     0.9303453512
    4      H       0.3637298895    -0.5928284358    -0.8330166456
    5      H       0.3617257390     1.0185019390    -0.0971848217
 ----------------------------------------------------------------
 Molecular Point Group                 C1    NOp =  1
 Largest Abelian Subgroup              C1    NOp =  1
 Nuclear Repulsion Energy =    13.4923926760 hartrees
 There are        5 alpha and        5 beta electrons
 Requested basis set is 6-311++G(d,p)
 There are 26 shells and 50 basis functions

 Total QAlloc Memory Limit   2000 MB
 Mega-Array Size       188 MB
 MEM_STATIC part       192 MB

finished with qalloc call

                       Distance Matrix (Angstroms)
             C (  1)   H (  2)   H (  3)   H (  4)
   H (  2)  1.085528
   H (  3)  1.085355  1.773492
   H (  4)  1.085359  1.773494  1.771386
   H (  5)  1.085338  1.773490  1.771393  1.771394

 Job number = 2, Threshold = 1.00E-08
Integral type ranges set in mkLRange.C for JobNum: 2  <1-21|1-21>
Symmetry turned off temporarily
 Using the largest function pair in Schwarz integrals
Total number of integrals generated =           13035
Symmetry turned back on
 A cutoff of  1.0D-08 yielded    351 shell pairs
 There are      1321 function pairs (      1377 Cartesian)
 Job number = 11, Threshold = 1.00E-08
Integral type ranges set in mkLRange.C for JobNum: 11  <1-21|22-22>
Total number of integrals generated =            6885
 Smallest overlap matrix eigenvalue = 1.33E-03
 Multipole matrices computed through 2nd order

 Scale SEOQF with 1.000000e-01/1.000000e-01/1.000000e-01

 Standard Electronic Orientation quadrupole field applied
 ENuRep (before)= 13.492393
 ENucField = 0.000000
 ENuRep (after) = 13.492393
 Guess from superposition of atomic densities
 Warning:  Energy on first SCF cycle will be non-variational
 SAD guess density has 10.000000 electrons

 ==================================================
    GEN_SCFMAN: A general SCF calculation manager  
                                                   
    Authors:                                       
        -- Eric Jon Sundstrom 2008-2014            
        -- Paul Horn 2010-2015                     
        -- Yuezhi Mao 2012-                        
        -- Dmitri Zuev 2014                        
        -- Alec White 2015-                        
        -- David Stuck 2015                        
        -- Shaama M.S. 2015                        
        -- Shane Yost 2015-                         
        -- Joonho Lee 2016-                        
        -- David Small 2016-                       
        -- Daniel Levine 2016-                     
        -- Susi Lehtola 2017-                      
        -- Hugh Burton 2017-                       
 ==================================================
 Hartree-Fock
Finding J and K together
 Job number = 22, Threshold = 1.00E-08
Integral type ranges set in mkLRange.C for JobNum: 22  <1-21|1-21>
 MakeJK  time:  CPU       0.21 s  wall       0.29 s
 HF Exchange:               -6.48724898226540
 One-Electron:             -78.39946345520293
 Total Coulomb:             31.14063466197255
 Nuclear repulsion:         13.49239267602388
 A restricted SCF calculation will be
 performed using DIIS
 SCF converges when DIIS error is below 1.0e-05
 ---------------------------------------
  Cycle       Energy         DIIS error
 ---------------------------------------
Finding J and K together
 Job number = 22, Threshold = 1.00E-08
Integral type ranges set in mkLRange.C for JobNum: 22  <1-21|1-21>
 MakeJK  time:  CPU       0.32 s  wall       0.42 s
 HF Exchange:               -6.57998634772985
 One-Electron:             -80.04062570532616
 Total Coulomb:             32.93100006681879
 Nuclear repulsion:         13.49239267602388
    1     -40.2536850995      7.41e-02  
Finding J and K together
 Job number = 22, Threshold = 1.00E-08
Integral type ranges set in mkLRange.C for JobNum: 22  <1-21|1-21>
 MakeJK  time:  CPU       0.33 s  wall       0.41 s
 HF Exchange:               -6.56978274412951
 One-Electron:             -79.70913504158615
 Total Coulomb:             32.57850547247174
 Nuclear repulsion:         13.49239267602388
    2     -40.1972193102      5.58e-03  
Finding J and K together
 Job number = 22, Threshold = 1.00E-08
Integral type ranges set in mkLRange.C for JobNum: 22  <1-21|1-21>
 MakeJK  time:  CPU       0.34 s  wall       0.40 s
 HF Exchange:               -6.59572551172761
 One-Electron:             -79.86392577109500
 Total Coulomb:             32.75824496023603
 Nuclear repulsion:         13.49239267602388
    3     -40.2080196372      1.60e-03  
Finding J and K together
 Job number = 22, Threshold = 1.00E-08
Integral type ranges set in mkLRange.C for JobNum: 22  <1-21|1-21>
 MakeJK  time:  CPU       0.33 s  wall       0.43 s
 HF Exchange:               -6.59469288938744
 One-Electron:             -79.82567536655920
 Total Coulomb:             32.71883359756456
 Nuclear repulsion:         13.49239267602388
    4     -40.2090136466      5.24e-04  
Finding J and K together
 Job number = 22, Threshold = 1.00E-08
Integral type ranges set in mkLRange.C for JobNum: 22  <1-21|1-21>
 MakeJK  time:  CPU       0.33 s  wall       0.38 s
 HF Exchange:               -6.59552102508732
 One-Electron:             -79.82715914454337
 Total Coulomb:             32.72114175857947
 Nuclear repulsion:         13.49239267602388
    5     -40.2091419824      6.93e-05  
    6     -40.2091457350      6.65e-06  Convergence criterion met
 ---------------------------------------
 SCF time:   CPU 1.90s  wall 2.00s 
 Total energy in the final basis set =      -40.2091457350
 HF Exchange:               -6.59552102508732
 One-Electron:             -79.82715914454337
 Total Coulomb:             32.72114175857947
 Nuclear repulsion:         13.49239267602388
Wall  1 = 2
Clock 1 = 1.90614199638367
 ==================================================
                  Done GEN_SCFMAN                  
 ==================================================

Symmetry turned off temporarily

 --------------------------------------------------------------

                    Orbital Energies (a.u.)
 --------------------------------------------------------------

 Alpha MOs
 -- Occupied --
-11.206  -0.945  -0.546  -0.546  -0.546
 -- Virtual --
  0.042   0.078   0.078   0.078   0.153   0.153   0.153   0.189
  0.309   0.309   0.309   0.382   0.551   0.551   0.551   0.866
  0.876   0.876   0.876   1.037   1.202   1.202   1.727   1.727
  1.728   1.808   1.808   1.808   2.206   2.206   2.208   2.629
  2.629   2.693   2.798   2.798   2.798   2.941   2.941   2.941
  3.270   4.213   4.213   4.214  25.215
 --------------------------------------------------------------

          Ground-State Mulliken Net Atomic Charges

     Atom                 Charge (a.u.)
  ----------------------------------------
      1 C                    -0.468500
      2 H                     0.117077
      3 H                     0.117140
      4 H                     0.117140
      5 H                     0.117143
  ----------------------------------------
  Sum of atomic charges =    -0.000000

 -----------------------------------------------------------------
                    Cartesian Multipole Moments
 -----------------------------------------------------------------
    Charge (ESU x 10^10)
                -0.0000
    Dipole Moment (Debye)
         X       0.0017      Y       0.0000      Z       0.0000
       Tot       0.0017
    Quadrupole Moments (Debye-Ang)
        XX      -8.4149     XY       0.0000     YY      -8.4245
        XZ       0.0000     YZ      -0.0000     ZZ      -8.4246
    Octopole Moments (Debye-Ang^2)
       XXX      -0.7856    XXY      -0.0019    XYY       0.3946
       YYY       0.5324    XXZ      -0.0002    XYZ       0.0003
       YYZ      -0.1559    XZZ       0.3958    YZZ      -0.5305
       ZZZ       0.1561
    Hexadecapole Moments (Debye-Ang^3)
      XXXX     -15.5654   XXXY       0.0012   XXYY      -5.5206
      XYYY       0.3388   YYYY     -15.8117   XXXZ       0.0001
      XXYZ       0.0003   XYYZ      -0.0998   YYYZ      -0.0003
      XXZZ      -5.5191   XYZZ      -0.3399   YYZZ      -5.2719
      XZZZ       0.0997   YZZZ      -0.0000   ZZZZ     -15.8135
 -----------------------------------------------------------------
 Mayer SCF Bond Order, atomic valence on the diagonal:

            1           2           3           4           5
    1   3.8988843   0.9748656   0.9746734   0.9746739   0.9746714
    2   0.9748656   0.9269578  -0.0159694  -0.0159695  -0.0159689
    3   0.9746734  -0.0159694   0.9265684  -0.0160682  -0.0160673
    4   0.9746739  -0.0159695  -0.0160682   0.9265689  -0.0160673
    5   0.9746714  -0.0159689  -0.0160673  -0.0160673   0.9265680


 JobOver = TRUE
Archival summary:
1\1\qciep03\SP\HF\BasisUnspecified\14\jcartus\ThuFeb112:04:162018ThuFeb112:04:162018\0\\#,HF,BasisUnspecified,\\0,1\C\H,1,1.08534\H,1,1.08536,2,109.382\H,1,1.08536,2,109.382,3,-119.781,0\H,1,1.08553,2,109.561,3,120.11,0\\HF=-40.2091457\\@

 Total job time:  2.58s(wall), 2.02s(cpu) 
 Thu Feb  1 12:04:16 2018

        *************************************************************
        *                                                           *
        *  Thank you very much for using Q-Chem.  Have a nice day.  *
        *                                                           *
        *************************************************************


*** MISSION COMPLETED -- STARFLEET OUT ***

0 sent ACK to 0 
now end server 0 ... 
