Process 0 of 1 is on qciep03 - thread support 0
initial socket setup ...start
initial socket setup ...done 
now start server 0 ... 
qciep03.tugraz.at 127.0.1
Q-Chem Developer Version! Running on 127.0.1.*
                  Welcome to Q-Chem
     A Quantum Leap Into The Future Of Chemistry


 Q-Chem 5.0, Q-Chem, Inc., Pleasanton, CA (2017)

 Yihan Shao,  Zhengting Gan,  E. Epifanovsky,  A. T. B. Gilbert,  M. Wormit,  
 J. Kussmann,  A. W. Lange,  A. Behn,  Jia Deng,  Xintian Feng,  D. Ghosh,  
 M. Goldey,  P. R. Horn,  L. D. Jacobson,  I. Kaliman,  T. Kus,  A. Landau,  
 Jie Liu,  E. I. Proynov,  R. M. Richard,  R. P. Steele,  E. J. Sundstrom,  
 H. L. Woodcock III,  P. M. Zimmerman,  D. Zuev,  B. Albrecht,  E. Alguire,  
 S. A. Baeppler,  D. Barton,  Z. Benda,  Y. A. Bernard,  E. J. Berquist,  
 K. B. Bravaya,  H. Burton,  D. Casanova,  Chun-Min Chang,  Yunqing Chen,  
 A. Chien,  K. D. Closser,  M. P. Coons,  S. Dasgupta,  A. L. Dempwolff,  
 M. Diedenhofen,  Hainam Do,  R. G. Edgar,  Po-Tung Fang,  S. Fatehi,  
 Qingguo Feng,  J. Fosso-Tande,  Qinghui Ge,  A. Ghysels,  G. Gidofalvi,  
 J. Gomes,  J. Gonthier,  A. Gunina,  M. W. D. Hanson-Heine,  
 P. H. P. Harbach,  A. W. Hauser,  J. E. Herr,  E. G. Hohenstein,  
 Z. C. Holden,  Kerwin Hui,  T.-C. Jagau,  Hyunjun Ji,  B. Kaduk,  
 K. Khistyaev,  Jaehoon Kim,  P. Klunzinger,  K. Koh,  D. Kosenkov,  
 L. Koulias,  T. Kowalczyk,  C. M. Krauter,  A. Kunitsa,  Ka Un Lao,  
 A. Laurent,  K. V. Lawler,  Joonho Lee,  D. Lefrancois,  S. Lehtola,  
 D. S. Levine,  Yi-Pei Li,  You-Sheng Lin,  Fenglai Liu,  E. Livshits,  
 A. Luenser,  P. Manohar,  E. Mansoor,  S. F. Manzer,  Shan-Ping Mao,  
 Yuezhi Mao,  N. Mardirossian,  A. V. Marenich,  T. Markovich,  
 L. A. Martinez-Martinez,  S. A. Maurer,  N. J. Mayhall,  S. C. McKenzie,  
 J.-M. Mewes,  A. F. Morrison,  J. W. Mullinax,  K. Nanda,  
 T. S. Nguyen-Beck,  R. Olivares-Amaya,  J. A. Parkhill,  T. M. Perrine,  
 F. Plasser,  S. Prager,  A. Prociuk,  E. Ramos,  D. R. Rehn,  F. Rob,  
 M. Schneider,  N. Sergueev,  S. M. Sharada,  S. Sharma,  D. W. Small,  
 T. Stauch,  T. Stein,  Yu-Chuan Su,  A. J. W. Thom,  A. Tkatchenko,  
 T. Tsuchimochi,  L. Vogt,  O. Vydrov,  M. A. Watson,  J. Wenzel,  
 M. de Wergifosse,  T. A. Wesolowski,  A. White,  J. Witte,  A. Yamada,  
 Jun Yang,  K. Yao,  S. Yeganeh,  S. R. Yost,  Zhi-Qiang You,  A. Zech,  
 Igor Ying Zhang,  Xing Zhang,  Yan Zhao,  Ying Zhu,  B. R. Brooks,  
 G. K. L. Chan,  C. J. Cramer,  M. S. Gordon,  W. J. Hehre,  A. Klamt,  
 M. W. Schmidt,  C. D. Sherrill,  D. G. Truhlar,  A. Aspuru-Guzik,  R. Baer,  
 A. T. Bell,  N. A. Besley,  Jeng-Da Chai,  R. A. DiStasio Jr.,  A. Dreuw,  
 B. D. Dunietz,  T. R. Furlani,  Chao-Ping Hsu,  Yousung Jung,  Jing Kong,  
 D. S. Lambrecht,  WanZhen Liang,  C. Ochsenfeld,  V. A. Rassolov,  
 L. V. Slipchenko,  J. E. Subotnik,  T. Van Voorhis,  J. M. Herbert,  
 A. I. Krylov,  P. M. W. Gill,  M. Head-Gordon

 Contributors to earlier versions of Q-Chem not listed above: 
 R. D. Adamson,  B. Austin,  J. Baker,  G. J. O. Beran,  K. Brandhorst,  
 S. T. Brown,  E. F. C. Byrd,  A. K. Chakraborty,  C.-L. Cheng,  
 Siu Hung Chien,  D. M. Chipman,  D. L. Crittenden,  H. Dachsel,  
 R. J. Doerksen,  A. D. Dutoi,  L. Fusti-Molnar,  W. A. Goddard III,  
 A. Golubeva-Zadorozhnaya,  S. R. Gwaltney,  G. Hawkins,  A. Heyden,  
 S. Hirata,  G. Kedziora,  F. J. Keil,  C. Kelley,  Jihan Kim,  R. A. King,  
 R. Z. Khaliullin,  P. P. Korambath,  W. Kurlancheek,  A. M. Lee,  M. S. Lee,  
 S. V. Levchenko,  Ching Yeh Lin,  D. Liotard,  R. C. Lochan,  I. Lotan,  
 P. E. Maslen,  N. Nair,  D. P. O'Neill,  D. Neuhauser,  E. Neuscamman,  
 C. M. Oana,  R. Olson,  B. Peters,  R. Peverati,  P. A. Pieniazek,  
 Y. M. Rhee,  J. Ritchie,  M. A. Rohrdanz,  E. Rosta,  N. J. Russ,  
 H. F. Schaefer III,  N. E. Schultz,  N. Shenvi,  A. C. Simmonett,  A. Sodt,  
 D. Stuck,  K. S. Thanthiriwatte,  V. Vanovschi,  Tao Wang,  A. Warshel,  
 C. F. Williams,  Q. Wu,  X. Xu,  W. Zhang

 Please cite Q-Chem as follows:
 Y. Shao et al., Mol. Phys. 113, 184-215 (2015)
 DOI: 10.1080/00268976.2014.952696

 Q-Chem 5.0.2 for Intel X86 EM64T Linux

 Parts of Q-Chem use Armadillo 5.200.1 (Boston Tea Smuggler).
 http://arma.sourceforge.net/

 Q-Chem begins on Thu Jan 25 17:19:45 2018  


Host: 0

     Scratch files written to /home/jcartus/scratch/Indole-benzene-complex-stack.dir//
 Using version located at /usr/local/qchem/bin/qchem

 Parallel job on  1  processors

Total Memory Limit in MB = 2000
Mega-Array Size in MB = 192

Checking the input file for inconsistencies... 	...done.
Finally everything over in PARseQInput

--------------------------------------------------------------
User input:
--------------------------------------------------------------
$rem
SCF_PRINT                     1
BASIS                         6-311++g**
SCF_SAVE_MATRICES             1
SCF_CONVERGENCE               5
SCF_FINAL_PRINT               1
METHOD                        hf
JOBTYPE                       sp
$end

$molecule
0 1
C    -0.0210742    1.5318615    -1.3639345
C    -1.2746794    0.974103    -1.6074097
C    -1.3783055    -0.2256981    -2.3084154
C    -0.2289426    -0.8664053    -2.7687944
C    1.0247882    -0.3035171    -2.531241
C    1.1289996    0.8966787    -1.829983
H    0.060074    2.4565627    -0.8093957
H    -2.1651002    1.4654521    -1.2405676
H    -2.3509735    -0.6616122    -2.4926698
H    -0.3103419    -1.7955762    -3.3172704
H    1.9165847    -0.7940845    -2.8993942
H    2.1000347    1.3326757    -1.640042
H    -2.9417647    0.8953834    2.2239054
C    -2.0220674    0.425854    1.9013549
C    -0.8149418    1.0740453    2.1066982
H    -0.7851529    2.0443812    2.5856086
C    0.3704286    0.4492852    1.6847458
C    1.7508619    0.8038935    1.7194004
H    2.1870108    1.6998281    2.1275903
C    2.4451359    -0.2310742    1.1353313
N    1.5646462    -1.2137812    0.7555384
C    0.2861214    -0.8269486    1.0618752
C    -0.9284667    -1.4853121    0.8606937
H    -0.97292    -2.4554847    0.3834013
C    -2.0792848    -0.8417668    1.2876443
H    -3.0389974    -1.3203846    1.14684
H    1.8075741    -2.0366963    0.2333038
H    3.5028794    -0.3485344    0.9695233
$end


--------------------------------------------------------------
 ----------------------------------------------------------------
             Standard Nuclear Orientation (Angstroms)
    I     Atom           X                Y                Z
 ----------------------------------------------------------------
    1      C       1.3100856013    -0.0285187506    -1.5645473752
    2      C       1.5473439238    -1.2895179762    -1.0209573124
    3      C       2.2776275816    -1.4123415485     0.1594113541
    4      C       2.7734550439    -0.2748198257     0.7947766613
    5      C       2.5419838617     0.9862415957     0.2459043213
    6      C       1.8114473671     1.1096570524    -0.9348487485
    7      H       0.7330098588     0.0676577430    -2.4738901543
    8      H       1.1531752991    -2.1706316459    -1.5079029581
    9      H       2.4571428067    -2.3906909766     0.5844531229
   10      H       3.3445834161    -0.3711774182     1.7087448920
   11      H       2.9374652286     1.8687144257     0.7320425144
   12      H       1.6262191766     2.0864671583    -1.3598342393
   13      H      -2.3075653847    -2.8943404515    -0.8519466179
   14      C      -1.9577543294    -1.9830906853    -0.3854748659
   15      C      -2.1600256430    -0.7686000677    -1.0207455970
   16      H      -2.6635467491    -0.7247132689    -1.9779993529
   17      C      -1.7024293116     0.4056539581    -0.4000966816
   18      C      -1.7235732170     1.7887379144    -0.7453151463
   19      H      -2.1477681040     2.2372859835    -1.6275889091
   20      C      -1.1013230587     2.4666676948     0.2781726133
   21      N      -0.7105697025     1.5737483602     1.2452427675
   22      C      -1.0479298946     0.3029259414     0.8588416284
   23      C      -0.8496758490    -0.9190240363     1.5043447904
   24      H      -0.3480179190    -0.9775455154     2.4613889705
   25      C      -1.3121889145    -2.0585277979     0.8652575439
   26      H      -1.1747748111    -3.0234915750     1.3342046594
   27      H      -0.1630987055     1.8027847302     2.0556439351
   28      H      -0.9150951642     3.5207814780     0.3976456500
 ----------------------------------------------------------------
 Molecular Point Group                 C1    NOp =  1
 Largest Abelian Subgroup              C1    NOp =  1
 Nuclear Repulsion Energy =   935.5301076678 hartrees
 There are       52 alpha and       52 beta electrons
 Requested basis set is 6-311++G(d,p)
 There are 155 shells and 421 basis functions

 Total QAlloc Memory Limit   2000 MB
 Mega-Array Size       188 MB
 MEM_STATIC part       192 MB

finished with qalloc call
 Job number = 2, Threshold = 1.00E-08
Integral type ranges set in mkLRange.C for JobNum: 2  <1-21|1-21>
Symmetry turned off temporarily
 Using the largest function pair in Schwarz integrals
Total number of integrals generated =         1152820
Symmetry turned back on
 A cutoff of  1.0D-08 yielded   9470 shell pairs
 There are     71680 function pairs (     76528 Cartesian)
 Job number = 11, Threshold = 1.00E-08
Integral type ranges set in mkLRange.C for JobNum: 11  <1-21|22-22>
Total number of integrals generated =         2142784
 Smallest overlap matrix eigenvalue = 3.05E-07

 Q-Chem warning in module /usr/local/qchem/stvman/mkSTV.C, line 295:

 Overlap eigenvalue is smaller than square root of threshold

 Linear dependence detected in AO basis
 Number of orthogonalized atomic orbitals = 418
 Maximum deviation from orthogonality = 1.221E-10
 Multipole matrices computed through 2nd order

 Scale SEOQF with 1.000000e-01/1.000000e-01/1.000000e-01

 Standard Electronic Orientation quadrupole field applied
 Nucleus-field energy     =     0.0000000162 hartrees
 ENuRep (before)= 935.5301076678
 ENucField = 0.0000000162
 ENuRep (after) = 935.5301076839
 Guess from superposition of atomic densities
 Warning:  Energy on first SCF cycle will be non-variational
 SAD guess density has 104.000000 electrons

 ==================================================
    GEN_SCFMAN: A general SCF calculation manager  
                                                   
    Authors:                                       
        -- Eric Jon Sundstrom 2008-2014            
        -- Paul Horn 2010-2015                     
        -- Yuezhi Mao 2012-                        
        -- Dmitri Zuev 2014                        
        -- Alec White 2015-                        
        -- David Stuck 2015                        
        -- Shaama M.S. 2015                        
        -- Shane Yost 2015-                         
        -- Joonho Lee 2016-                        
        -- David Small 2016-                       
        -- Daniel Levine 2016-                     
        -- Susi Lehtola 2017-                      
        -- Hugh Burton 2017-                       
 ==================================================
 Hartree-Fock
Finding J and K together
 Job number = 22, Threshold = 1.00E-08
Integral type ranges set in mkLRange.C for JobNum: 22  <1-21|1-21>
 MakeJK  time:  CPU      36.24 s  wall      36.75 s
 HF Exchange:              -86.46368898716933
 One-Electron:             -2648.64475904462097
 Total Coulomb:            1200.46698666679708
 Nuclear repulsion:        935.53010768391516
 A restricted SCF calculation will be
 performed using DIIS
 SCF converges when DIIS error is below 1.0e-05
 ---------------------------------------
  Cycle       Energy         DIIS error
 ---------------------------------------
Finding J and K together
 Job number = 22, Threshold = 1.00E-08
Integral type ranges set in mkLRange.C for JobNum: 22  <1-21|1-21>
 MakeJK  time:  CPU     235.29 s  wall     236.82 s
 HF Exchange:              -83.69234586451907
 One-Electron:             -2660.50197602497246
 Total Coulomb:            1216.54205687233843
 Nuclear repulsion:        935.53010768391516
    1    -599.1113536811      3.49e-02  
Finding J and K together
 Job number = 22, Threshold = 1.00E-08
Integral type ranges set in mkLRange.C for JobNum: 22  <1-21|1-21>
 MakeJK  time:  CPU     271.94 s  wall     274.72 s
 HF Exchange:              -83.83741945927288
 One-Electron:             -2658.46069093735605
 Total Coulomb:            1214.49114417564897
 Nuclear repulsion:        935.53010768391516
    2    -592.1221573332      2.31e-03  
Finding J and K together
 Job number = 22, Threshold = 1.00E-08
Integral type ranges set in mkLRange.C for JobNum: 22  <1-21|1-21>
 MakeJK  time:  CPU     282.03 s  wall     282.71 s
 HF Exchange:              -83.92448747438274
 One-Electron:             -2659.82420805515949
 Total Coulomb:            1215.92685416942550
 Nuclear repulsion:        935.53010768391516
    3    -592.2768585371      8.61e-04  
Finding J and K together
 Job number = 22, Threshold = 1.00E-08
Integral type ranges set in mkLRange.C for JobNum: 22  <1-21|1-21>
 MakeJK  time:  CPU     283.76 s  wall     284.11 s
 HF Exchange:              -83.93392856826445
 One-Electron:             -2659.55835701926389
 Total Coulomb:            1215.66455866039928
 Nuclear repulsion:        935.53010768391516
    4    -592.2917336762      4.96e-04  
Finding J and K together
 Job number = 22, Threshold = 1.00E-08
Integral type ranges set in mkLRange.C for JobNum: 22  <1-21|1-21>
 MakeJK  time:  CPU     273.26 s  wall     274.95 s
 HF Exchange:              -83.92581223560354
 One-Electron:             -2659.37648006883910
 Total Coulomb:            1215.47441477720167
 Nuclear repulsion:        935.53010768391516
    5    -592.2976192432      7.59e-05  
Finding J and K together
 Job number = 22, Threshold = 1.00E-08
Integral type ranges set in mkLRange.C for JobNum: 22  <1-21|1-21>
 MakeJK  time:  CPU     242.77 s  wall     245.54 s
 HF Exchange:              -83.92828284494637
 One-Electron:             -2659.41892973949734
 Total Coulomb:            1215.51931122200017
 Nuclear repulsion:        935.53010768391516
    6    -592.2977698433      2.20e-05  
    7    -592.2977936785      8.67e-06  Convergence criterion met
 ---------------------------------------
 SCF time:   CPU 1637.99s  wall 1649.00s 
 Total energy in the final basis set =     -592.2977936785
 HF Exchange:              -83.92828284494637
 One-Electron:             -2659.41892973949734
 Total Coulomb:            1215.51931122200017
 Nuclear repulsion:        935.53010768391516
Wall  1 = 1650
Clock 1 = 1639.36425781250000
 ==================================================
                  Done GEN_SCFMAN                  
 ==================================================

Symmetry turned off temporarily

 --------------------------------------------------------------

                    Orbital Energies (a.u.)
 --------------------------------------------------------------

 Alpha MOs
 -- Occupied --
-15.601 -11.272 -11.262 -11.230 -11.229 -11.229 -11.229 -11.227
-11.227 -11.226 -11.226 -11.225 -11.225 -11.221 -11.216  -1.299
 -1.143  -1.129  -1.057  -1.007  -1.007  -0.997  -0.974  -0.843
 -0.817  -0.817  -0.806  -0.789  -0.728  -0.703  -0.662  -0.648
 -0.637  -0.611  -0.603  -0.596  -0.586  -0.581  -0.580  -0.574
 -0.550  -0.507  -0.492  -0.487  -0.487  -0.481  -0.462  -0.386
 -0.327  -0.325  -0.298  -0.279
 -- Virtual --
  0.034   0.043   0.044   0.057   0.057   0.058   0.066   0.069
  0.079   0.082   0.086   0.089   0.103   0.111   0.118   0.123
  0.126   0.134   0.142   0.146   0.149   0.151   0.159   0.163
  0.166   0.170   0.175   0.178   0.179   0.182   0.184   0.187
  0.190   0.197   0.199   0.203   0.205   0.210   0.211   0.216
  0.220   0.223   0.229   0.233   0.237   0.239   0.244   0.248
  0.249   0.259   0.261   0.264   0.266   0.268   0.271   0.283
  0.284   0.288   0.291   0.314   0.315   0.318   0.325   0.331
  0.336   0.339   0.355   0.358   0.366   0.369   0.370   0.375
  0.381   0.387   0.392   0.394   0.402   0.409   0.411   0.414
  0.423   0.428   0.431   0.437   0.445   0.446   0.453   0.459
  0.465   0.473   0.475   0.490   0.511   0.516   0.520   0.524
  0.537   0.538   0.567   0.595   0.618   0.626   0.643   0.660
  0.669   0.710   0.730   0.740   0.743   0.753   0.757   0.760
  0.764   0.768   0.777   0.782   0.788   0.802   0.806   0.822
  0.825   0.833   0.845   0.856   0.859   0.867   0.883   0.896
  0.905   0.909   0.920   0.934   0.942   0.947   0.949   0.958
  0.964   0.967   0.973   0.984   0.989   0.996   1.006   1.017
  1.020   1.023   1.029   1.040   1.047   1.058   1.067   1.071
  1.086   1.090   1.100   1.106   1.113   1.117   1.121   1.139
  1.146   1.154   1.158   1.171   1.182   1.196   1.217   1.223
  1.233   1.243   1.258   1.270   1.275   1.279   1.290   1.308
  1.310   1.327   1.356   1.360   1.382   1.387   1.400   1.404
  1.417   1.422   1.427   1.439   1.446   1.470   1.543   1.579
  1.594   1.647   1.727   1.743   1.775   1.783   1.790   1.796
  1.812   1.821   1.830   1.837   1.856   1.864   1.874   1.887
  1.898   1.905   1.913   1.935   1.942   1.948   1.965   1.976
  1.987   1.990   2.018   2.035   2.036   2.043   2.059   2.067
  2.075   2.095   2.107   2.134   2.142   2.147   2.159   2.168
  2.189   2.209   2.217   2.228   2.242   2.250   2.254   2.261
  2.263   2.271   2.279   2.290   2.309   2.326   2.351   2.353
  2.371   2.377   2.392   2.396   2.398   2.409   2.419   2.450
  2.475   2.546   2.573   2.654   2.655   2.673   2.675   2.707
  2.764   2.776   2.779   2.833   2.843   2.848   2.868   2.870
  2.881   2.896   2.906   2.925   2.969   2.976   2.983   2.996
  3.022   3.040   3.048   3.064   3.070   3.081   3.089   3.090
  3.100   3.119   3.121   3.133   3.143   3.146   3.170   3.177
  3.189   3.215   3.227   3.270   3.278   3.288   3.296   3.299
  3.315   3.343   3.347   3.352   3.367   3.387   3.391   3.412
  3.432   3.461   3.520   3.534   3.560   3.577   3.636   3.726
  3.800   3.818   3.827   3.877   3.891   3.922   3.928   3.959
  3.989   3.996   4.010   4.082   4.094   4.107   4.173   4.392
  4.420   4.430   4.454   4.472   4.506   4.515   4.553   4.597
  4.603   4.641   4.855   5.276   5.290   5.447   5.654  24.791
 24.835  25.039  25.125  25.173  25.178  25.194  25.228  25.272
 25.274  25.289  25.342  25.372  25.382  37.107
 --------------------------------------------------------------

          Ground-State Mulliken Net Atomic Charges

     Atom                 Charge (a.u.)
  ----------------------------------------
      1 C                    -0.155706
      2 C                    -0.082964
      3 C                    -0.155208
      4 C                    -0.409593
      5 C                    -0.463372
      6 C                     0.044521
      7 H                     0.207783
      8 H                     0.189335
      9 H                     0.201294
     10 H                     0.185112
     11 H                     0.197377
     12 H                     0.194574
     13 H                     0.195275
     14 C                    -0.468195
     15 C                    -0.570053
     16 H                     0.207050
     17 C                     0.429371
     18 C                    -0.111424
     19 H                     0.200103
     20 C                    -0.248148
     21 N                    -0.161863
     22 C                     0.285448
     23 C                    -0.223337
     24 H                     0.202426
     25 C                    -0.419244
     26 H                     0.204149
     27 H                     0.323860
     28 H                     0.201428
  ----------------------------------------
  Sum of atomic charges =    -0.000000

 -----------------------------------------------------------------
                    Cartesian Multipole Moments
 -----------------------------------------------------------------
    Charge (ESU x 10^10)
                -0.0000
    Dipole Moment (Debye)
         X       0.6917      Y       1.2624      Z       1.2429
       Tot       1.9018
    Quadrupole Moments (Debye-Ang)
        XX     -99.9130     XY       1.3034     YY     -78.5888
        XZ       8.9834     YZ       1.9580     ZZ     -82.5394
    Octopole Moments (Debye-Ang^2)
       XXX       1.4860    XXY       1.3350    XYY       3.3575
       YYY      13.6216    XXZ       3.3336    XYZ      -0.7096
       YYZ       7.7211    XZZ      -2.1471    YZZ       7.2506
       ZZZ      10.5453
    Hexadecapole Moments (Debye-Ang^3)
      XXXX   -1972.0801   XXXY      11.0699   XXYY    -506.9098
      XYYY       8.6078   YYYY   -1084.8895   XXXZ      95.1267
      XXYZ       0.1604   XYYZ      21.3808   YYYZ      15.3999
      XXZZ    -405.5059   XYZZ      -1.1604   YYZZ    -284.8951
      XZZZ      43.1639   YZZZ      14.5871   ZZZZ    -595.3832
 -----------------------------------------------------------------
 Mayer SCF Bond Order, atomic valence on the diagonal:

            1           2           3           4           5           6
    1   4.2201642   1.5493464   0.2355567  -0.0885379   0.1849270   1.5421860
    2   1.5493464   4.2067718   1.5592094   0.1073980  -0.0410530   0.2457923
    3   0.2355567   1.5592094   4.1199401   1.6254620  -0.0358796  -0.0958065
    4  -0.0885379   0.1073980   1.6254620   4.4159071   1.7554535   0.0323100
    5   0.1849270  -0.0410530  -0.0358796   1.7554535   4.4848342   1.4752014
    6   1.5421860   0.2457923  -0.0958065   0.0323100   1.4752014   3.8823093
    7   0.9428971  -0.0185545   0.0120426  -0.0079949   0.0030669  -0.0021137
    8  -0.0156509   0.9165726   0.0116572   0.0021855  -0.0109984   0.0238962
    9   0.0126001  -0.0061045   0.9180241  -0.0044358   0.0036538  -0.0063108
   10  -0.0105549   0.0103551   0.0108769   0.8978567  -0.0008850   0.0131622
   11   0.0056051  -0.0067162   0.0107700  -0.0093425   0.9137595   0.0023239
   12  -0.0170676   0.0137334  -0.0066345  -0.0009335  -0.0073995   0.9415332
   13   0.0012120   0.0036983   0.0010397  -0.0011691   0.0016980  -0.0014790
   14   0.0833508   0.0233314   0.0685944  -0.0002929  -0.0069917   0.0049891
   15  -0.0241128  -0.0447049  -0.0197060   0.0283067  -0.0216896  -0.0138042
   16  -0.0087510  -0.0024622  -0.0005964   0.0010583   0.0012603  -0.0010689
   17  -0.1464155   0.0132842   0.0509794  -0.0290633  -0.0016550  -0.0160522
   18   0.0150376   0.0371759  -0.0155231  -0.0156336   0.0533393   0.0013702
   19   0.0048880   0.0018092  -0.0007285  -0.0007763   0.0006365  -0.0016417
   20  -0.0261712  -0.0002020  -0.0128940  -0.0020633   0.1148194  -0.0252249
   21   0.0271583   0.0316618  -0.0348253   0.0174771   0.0614009  -0.1322213
   22  -0.0728376   0.0726885   0.0162008  -0.0399424   0.0432589  -0.0727082
   23   0.0101642  -0.1090822  -0.2166832   0.0056181   0.0202453  -0.0319426
   24   0.0019893   0.0022230  -0.0118485  -0.0056381  -0.0018606  -0.0002381
   25   0.0161383  -0.1438400   0.0512616   0.1366492  -0.0264700   0.0044509
   26  -0.0038594  -0.0070332  -0.0021475   0.0026678  -0.0001404   0.0003245
   27   0.0024927  -0.0012795   0.0008026   0.0091944   0.0078661  -0.0013307
   28  -0.0014267  -0.0004754   0.0007359   0.0000935  -0.0007300  -0.0032877
            7           8           9          10          11          12
    1   0.9428971  -0.0156509   0.0126001  -0.0105549   0.0056051  -0.0170676
    2  -0.0185545   0.9165726  -0.0061045   0.0103551  -0.0067162   0.0137334
    3   0.0120426   0.0116572   0.9180241   0.0108769   0.0107700  -0.0066345
    4  -0.0079949   0.0021855  -0.0044358   0.8978567  -0.0093425  -0.0009335
    5   0.0030669  -0.0109984   0.0036538  -0.0008850   0.9137595  -0.0073995
    6  -0.0021137   0.0238962  -0.0063108   0.0131622   0.0023239   0.9415332
    7   0.9106157   0.0017298   0.0012600   0.0000680   0.0009829   0.0030124
    8   0.0017298   0.9466046   0.0033861   0.0012893  -0.0001114   0.0017746
    9   0.0012600   0.0033861   0.9043529   0.0021081   0.0011447   0.0000122
   10   0.0000680   0.0012893   0.0021081   0.9347246   0.0010284   0.0013183
   11   0.0009829  -0.0001114   0.0011447   0.0010284   0.9099126   0.0037058
   12   0.0030124   0.0017746   0.0000122   0.0013183   0.0037058   0.9279264
   13   0.0001568   0.0014679   0.0000719  -0.0000350   0.0000676  -0.0000255
   14   0.0082000   0.0135444   0.0057192   0.0004837  -0.0017542   0.0005434
   15  -0.0262678   0.0046453  -0.0016934   0.0009787   0.0008801   0.0010137
   16  -0.0012163  -0.0000342  -0.0000305   0.0000202   0.0000808  -0.0000670
   17  -0.0016441  -0.0055100  -0.0007061  -0.0009948  -0.0009253  -0.0013680
   18  -0.0158075   0.0009288  -0.0002103  -0.0002931   0.0016895   0.0004033
   19  -0.0001642   0.0000381   0.0000055  -0.0000042  -0.0000039   0.0004271
   20   0.0016206   0.0009236  -0.0016769   0.0005186  -0.0009943  -0.0013428
   21  -0.0006849   0.0005599  -0.0002800   0.0037640  -0.0110811  -0.0031709
   22   0.0129323   0.0043141   0.0044506  -0.0038762   0.0003264  -0.0022337
   23  -0.0029777  -0.0004924  -0.0169776   0.0006809   0.0015279  -0.0001178
   24   0.0000742   0.0001480  -0.0005884   0.0001938   0.0000298  -0.0000759
   25   0.0001776  -0.0089741  -0.0084352   0.0056804  -0.0022436   0.0004454
   26  -0.0000538  -0.0007685  -0.0005930   0.0000288   0.0000354   0.0000110
   27  -0.0000594   0.0000673  -0.0000611   0.0009300  -0.0009621   0.0003920
   28  -0.0000667   0.0000159   0.0000202   0.0000258   0.0000893   0.0000371
           13          14          15          16          17          18
    1   0.0012120   0.0833508  -0.0241128  -0.0087510  -0.1464155   0.0150376
    2   0.0036983   0.0233314  -0.0447049  -0.0024622   0.0132842   0.0371759
    3   0.0010397   0.0685944  -0.0197060  -0.0005964   0.0509794  -0.0155231
    4  -0.0011691  -0.0002929   0.0283067   0.0010583  -0.0290633  -0.0156336
    5   0.0016980  -0.0069917  -0.0216896   0.0012603  -0.0016550   0.0533393
    6  -0.0014790   0.0049891  -0.0138042  -0.0010689  -0.0160522   0.0013702
    7   0.0001568   0.0082000  -0.0262678  -0.0012163  -0.0016441  -0.0158075
    8   0.0014679   0.0135444   0.0046453  -0.0000342  -0.0055100   0.0009288
    9   0.0000719   0.0057192  -0.0016934  -0.0000305  -0.0007061  -0.0002103
   10  -0.0000350   0.0004837   0.0009787   0.0000202  -0.0009948  -0.0002931
   11   0.0000676  -0.0017542   0.0008801   0.0000808  -0.0009253   0.0016895
   12  -0.0000255   0.0005434   0.0010137  -0.0000670  -0.0013680   0.0004033
   13   0.9250086   0.8919625  -0.0532993  -0.0011413   0.0546696   0.0045616
   14   0.8919625   4.5163949   1.9307455   0.0120171  -0.0357988   0.0337236
   15  -0.0532993   1.9307455   4.4433119   0.8393059   1.4553285   0.0084424
   16  -0.0011413   0.0120171   0.8393059   0.9022664   0.0154459   0.0131855
   17   0.0546696  -0.0357988   1.4553285   0.0154459   4.1294281   0.8387897
   18   0.0045616   0.0337236   0.0084424   0.0131855   0.8387897   3.8857927
   19  -0.0004371  -0.0124946  -0.0285387   0.0039619  -0.0365371   0.9131110
   20   0.0011340   0.0062388   0.0449873   0.0061666   0.0711589   1.8288584
   21   0.0001174   0.0501682   0.0000233  -0.0025824   0.1339390  -0.0294430
   22  -0.0075256  -0.3147192   0.2579158   0.0411886   1.3132933   0.0000416
   23  -0.0076569   0.0404808   0.1105594  -0.0138192   0.4896632   0.1848362
   24   0.0006040  -0.0000586  -0.0199159  -0.0001449   0.0375919  -0.0017989
   25   0.0336182   1.6971099   0.0186382  -0.0009443  -0.1669584   0.0043471
   26   0.0014766   0.0176964  -0.0150537   0.0010777   0.0101546  -0.0009119
   27   0.0001876   0.0011662  -0.0007775   0.0004300   0.0346720  -0.0020926
   28   0.0000339  -0.0015603   0.0111052  -0.0000740   0.0540862   0.0276649
           19          20          21          22          23          24
    1   0.0048880  -0.0261712   0.0271583  -0.0728376   0.0101642   0.0019893
    2   0.0018092  -0.0002020   0.0316618   0.0726885  -0.1090822   0.0022230
    3  -0.0007285  -0.0128940  -0.0348253   0.0162008  -0.2166832  -0.0118485
    4  -0.0007763  -0.0020633   0.0174771  -0.0399424   0.0056181  -0.0056381
    5   0.0006365   0.1148194   0.0614009   0.0432589   0.0202453  -0.0018606
    6  -0.0016417  -0.0252249  -0.1322213  -0.0727082  -0.0319426  -0.0002381
    7  -0.0001642   0.0016206  -0.0006849   0.0129323  -0.0029777   0.0000742
    8   0.0000381   0.0009236   0.0005599   0.0043141  -0.0004924   0.0001480
    9   0.0000055  -0.0016769  -0.0002800   0.0044506  -0.0169776  -0.0005884
   10  -0.0000042   0.0005186   0.0037640  -0.0038762   0.0006809   0.0001938
   11  -0.0000039  -0.0009943  -0.0110811   0.0003264   0.0015279   0.0000298
   12   0.0004271  -0.0013428  -0.0031709  -0.0022337  -0.0001178  -0.0000759
   13  -0.0004371   0.0011340   0.0001174  -0.0075256  -0.0076569   0.0006040
   14  -0.0124946   0.0062388   0.0501682  -0.3147192   0.0404808  -0.0000586
   15  -0.0285387   0.0449873   0.0000233   0.2579158   0.1105594  -0.0199159
   16   0.0039619   0.0061666  -0.0025824   0.0411886  -0.0138192  -0.0001449
   17  -0.0365371   0.0711589   0.1339390   1.3132933   0.4896632   0.0375919
   18   0.9131110   1.8288584  -0.0294430   0.0000416   0.1848362  -0.0017989
   19   0.9202689   0.0316363   0.0138791   0.0302225  -0.0049062  -0.0000761
   20   0.0316363   4.0996461   0.9017222   0.1676445   0.0795791   0.0150023
   21   0.0138791   0.9017222   2.7163039   1.0596957  -0.1968699  -0.0037682
   22   0.0302225   0.1676445   1.0596957   3.9567237   1.3521889  -0.0506903
   23  -0.0049062   0.0795791  -0.1968699   1.3521889   4.2591159   0.8669711
   24  -0.0000761   0.0150023  -0.0037682  -0.0506903   0.8669711   0.9010560
   25   0.0039295   0.0393394   0.0004876   0.0551557   1.7594756   0.0729061
   26   0.0004044  -0.0043768   0.0010264   0.0596355  -0.0510243   0.0012886
   27   0.0010596  -0.0211118   0.8858660   0.0026868  -0.0057531  -0.0019614
   28   0.0005689   0.8843541  -0.0577159   0.0274167  -0.0045719   0.0006977
           25          26          27          28
    1   0.0161383  -0.0038594   0.0024927  -0.0014267
    2  -0.1438400  -0.0070332  -0.0012795  -0.0004754
    3   0.0512616  -0.0021475   0.0008026   0.0007359
    4   0.1366492   0.0026678   0.0091944   0.0000935
    5  -0.0264700  -0.0001404   0.0078661  -0.0007300
    6   0.0044509   0.0003245  -0.0013307  -0.0032877
    7   0.0001776  -0.0000538  -0.0000594  -0.0000667
    8  -0.0089741  -0.0007685   0.0000673   0.0000159
    9  -0.0084352  -0.0005930  -0.0000611   0.0000202
   10   0.0056804   0.0000288   0.0009300   0.0000258
   11  -0.0022436   0.0000354  -0.0009621   0.0000893
   12   0.0004454   0.0000110   0.0003920   0.0000371
   13   0.0336182   0.0014766   0.0001876   0.0000339
   14   1.6971099   0.0176964   0.0011662  -0.0015603
   15   0.0186382  -0.0150537  -0.0007775   0.0111052
   16  -0.0009443   0.0010777   0.0004300  -0.0000740
   17  -0.1669584   0.0101546   0.0346720   0.0540862
   18   0.0043471  -0.0009119  -0.0020926   0.0276649
   19   0.0039295   0.0004044   0.0010596   0.0005689
   20   0.0393394  -0.0043768  -0.0211118   0.8843541
   21   0.0004876   0.0010264   0.8858660  -0.0577159
   22   0.0551557   0.0596355   0.0026868   0.0274167
   23   1.7594756  -0.0510243  -0.0057531  -0.0045719
   24   0.0729061   0.0012886  -0.0019614   0.0006977
   25   4.4314233   0.8930814  -0.0041464   0.0005431
   26   0.8930814   0.9026054  -0.0001424  -0.0001987
   27  -0.0041464  -0.0001424   0.9057801  -0.0023554
   28   0.0005431  -0.0001987  -0.0023554   0.9350259


 JobOver = TRUE
Archival summary:
1\1\qciep03\SP\HF\BasisUnspecified\11413\jcartus\ThuJan2517:47:192018ThuJan2517:47:192018\0\\#,HF,BasisUnspecified,\\0,1\N\H,1,1.00446\C,1,1.37044,2,124.967\C,1,1.37303,2,125.106,3,-172.06,0\H,4,1.07708,1,120.606,2,-6.44344,0\C,4,1.37634,1,109.396,2,174.198,0\H,6,1.07682,4,125.606,1,178.811,0\C,3,1.39612,1,130.264,2,6.54637,0\H,8,1.08214,3,121.471,1,-0.892645,0\C,8,1.38594,3,117.324,1,179.603,0\H,10,1.08164,8,119.418,3,179.885,0\C,10,1.40953,8,121.199,3,-0.0698485,0\H,12,1.08182,10,119.054,8,-179.825,0\C,12,1.38545,10,121.376,8,-0.291017,0\H,14,1.08249,12,120.593,10,-179.568,0\C,14,1.4048,12,118.856,10,0.321792,0\H,4,3.20423,1,92.329,2,86.6455,0\C,17,1.08124,4,92.986,1,23.4758,0\C,18,1.39395,17,120.179,4,-89.8283,0\H,19,1.08236,18,119.984,17,-0.873758,0\C,18,1.39403,17,119.897,4,89.7144,0\H,21,1.08128,18,119.947,17,-0.295825,0\C,21,1.39352,18,120.091,17,179.946,0\H,23,1.08113,21,119.981,18,179.672,0\C,23,1.39344,21,119.962,18,0.512943,0\H,25,1.08169,23,119.971,21,179.657,0\C,25,1.39409,23,120.036,21,-0.150146,0\H,27,1.08204,25,120.002,23,-179.702,0\\HF=-592.297794\\@

 Total job time:  1653.55s(wall), 1642.87s(cpu) 
 Thu Jan 25 17:47:19 2018

        *************************************************************
        *                                                           *
        *  Thank you very much for using Q-Chem.  Have a nice day.  *
        *                                                           *
        *************************************************************


*** MISSION COMPLETED -- STARFLEET OUT ***

0 sent ACK to 0 
now end server 0 ... 
