Process 0 of 1 is on qciep03 - thread support 0
initial socket setup ...start
initial socket setup ...done 
now start server 0 ... 
qciep03.tugraz.at 127.0.1
Q-Chem Developer Version! Running on 127.0.1.*
                  Welcome to Q-Chem
     A Quantum Leap Into The Future Of Chemistry


 Q-Chem 5.0, Q-Chem, Inc., Pleasanton, CA (2017)

 Yihan Shao,  Zhengting Gan,  E. Epifanovsky,  A. T. B. Gilbert,  M. Wormit,  
 J. Kussmann,  A. W. Lange,  A. Behn,  Jia Deng,  Xintian Feng,  D. Ghosh,  
 M. Goldey,  P. R. Horn,  L. D. Jacobson,  I. Kaliman,  T. Kus,  A. Landau,  
 Jie Liu,  E. I. Proynov,  R. M. Richard,  R. P. Steele,  E. J. Sundstrom,  
 H. L. Woodcock III,  P. M. Zimmerman,  D. Zuev,  B. Albrecht,  E. Alguire,  
 S. A. Baeppler,  D. Barton,  Z. Benda,  Y. A. Bernard,  E. J. Berquist,  
 K. B. Bravaya,  H. Burton,  D. Casanova,  Chun-Min Chang,  Yunqing Chen,  
 A. Chien,  K. D. Closser,  M. P. Coons,  S. Dasgupta,  A. L. Dempwolff,  
 M. Diedenhofen,  Hainam Do,  R. G. Edgar,  Po-Tung Fang,  S. Fatehi,  
 Qingguo Feng,  J. Fosso-Tande,  Qinghui Ge,  A. Ghysels,  G. Gidofalvi,  
 J. Gomes,  J. Gonthier,  A. Gunina,  M. W. D. Hanson-Heine,  
 P. H. P. Harbach,  A. W. Hauser,  J. E. Herr,  E. G. Hohenstein,  
 Z. C. Holden,  Kerwin Hui,  T.-C. Jagau,  Hyunjun Ji,  B. Kaduk,  
 K. Khistyaev,  Jaehoon Kim,  P. Klunzinger,  K. Koh,  D. Kosenkov,  
 L. Koulias,  T. Kowalczyk,  C. M. Krauter,  A. Kunitsa,  Ka Un Lao,  
 A. Laurent,  K. V. Lawler,  Joonho Lee,  D. Lefrancois,  S. Lehtola,  
 D. S. Levine,  Yi-Pei Li,  You-Sheng Lin,  Fenglai Liu,  E. Livshits,  
 A. Luenser,  P. Manohar,  E. Mansoor,  S. F. Manzer,  Shan-Ping Mao,  
 Yuezhi Mao,  N. Mardirossian,  A. V. Marenich,  T. Markovich,  
 L. A. Martinez-Martinez,  S. A. Maurer,  N. J. Mayhall,  S. C. McKenzie,  
 J.-M. Mewes,  A. F. Morrison,  J. W. Mullinax,  K. Nanda,  
 T. S. Nguyen-Beck,  R. Olivares-Amaya,  J. A. Parkhill,  T. M. Perrine,  
 F. Plasser,  S. Prager,  A. Prociuk,  E. Ramos,  D. R. Rehn,  F. Rob,  
 M. Schneider,  N. Sergueev,  S. M. Sharada,  S. Sharma,  D. W. Small,  
 T. Stauch,  T. Stein,  Yu-Chuan Su,  A. J. W. Thom,  A. Tkatchenko,  
 T. Tsuchimochi,  L. Vogt,  O. Vydrov,  M. A. Watson,  J. Wenzel,  
 M. de Wergifosse,  T. A. Wesolowski,  A. White,  J. Witte,  A. Yamada,  
 Jun Yang,  K. Yao,  S. Yeganeh,  S. R. Yost,  Zhi-Qiang You,  A. Zech,  
 Igor Ying Zhang,  Xing Zhang,  Yan Zhao,  Ying Zhu,  B. R. Brooks,  
 G. K. L. Chan,  C. J. Cramer,  M. S. Gordon,  W. J. Hehre,  A. Klamt,  
 M. W. Schmidt,  C. D. Sherrill,  D. G. Truhlar,  A. Aspuru-Guzik,  R. Baer,  
 A. T. Bell,  N. A. Besley,  Jeng-Da Chai,  R. A. DiStasio Jr.,  A. Dreuw,  
 B. D. Dunietz,  T. R. Furlani,  Chao-Ping Hsu,  Yousung Jung,  Jing Kong,  
 D. S. Lambrecht,  WanZhen Liang,  C. Ochsenfeld,  V. A. Rassolov,  
 L. V. Slipchenko,  J. E. Subotnik,  T. Van Voorhis,  J. M. Herbert,  
 A. I. Krylov,  P. M. W. Gill,  M. Head-Gordon

 Contributors to earlier versions of Q-Chem not listed above: 
 R. D. Adamson,  B. Austin,  J. Baker,  G. J. O. Beran,  K. Brandhorst,  
 S. T. Brown,  E. F. C. Byrd,  A. K. Chakraborty,  C.-L. Cheng,  
 Siu Hung Chien,  D. M. Chipman,  D. L. Crittenden,  H. Dachsel,  
 R. J. Doerksen,  A. D. Dutoi,  L. Fusti-Molnar,  W. A. Goddard III,  
 A. Golubeva-Zadorozhnaya,  S. R. Gwaltney,  G. Hawkins,  A. Heyden,  
 S. Hirata,  G. Kedziora,  F. J. Keil,  C. Kelley,  Jihan Kim,  R. A. King,  
 R. Z. Khaliullin,  P. P. Korambath,  W. Kurlancheek,  A. M. Lee,  M. S. Lee,  
 S. V. Levchenko,  Ching Yeh Lin,  D. Liotard,  R. C. Lochan,  I. Lotan,  
 P. E. Maslen,  N. Nair,  D. P. O'Neill,  D. Neuhauser,  E. Neuscamman,  
 C. M. Oana,  R. Olson,  B. Peters,  R. Peverati,  P. A. Pieniazek,  
 Y. M. Rhee,  J. Ritchie,  M. A. Rohrdanz,  E. Rosta,  N. J. Russ,  
 H. F. Schaefer III,  N. E. Schultz,  N. Shenvi,  A. C. Simmonett,  A. Sodt,  
 D. Stuck,  K. S. Thanthiriwatte,  V. Vanovschi,  Tao Wang,  A. Warshel,  
 C. F. Williams,  Q. Wu,  X. Xu,  W. Zhang

 Please cite Q-Chem as follows:
 Y. Shao et al., Mol. Phys. 113, 184-215 (2015)
 DOI: 10.1080/00268976.2014.952696

 Q-Chem 5.0.2 for Intel X86 EM64T Linux

 Parts of Q-Chem use Armadillo 5.200.1 (Boston Tea Smuggler).
 http://arma.sourceforge.net/

 Q-Chem begins on Thu Jan 25 17:44:45 2018  


Host: 0

     Scratch files written to /home/jcartus/scratch/Indole-benzene-complex-stack_mono1.dir//
 Using version located at /usr/local/qchem/bin/qchem

 Parallel job on  1  processors

Total Memory Limit in MB = 2000
Mega-Array Size in MB = 192

Checking the input file for inconsistencies... 	...done.
Finally everything over in PARseQInput

--------------------------------------------------------------
User input:
--------------------------------------------------------------
$rem
SCF_PRINT                     1
BASIS                         6-311++g**
SCF_SAVE_MATRICES             1
SCF_CONVERGENCE               5
SCF_FINAL_PRINT               1
METHOD                        hf
JOBTYPE                       sp
$end

$molecule
0 1
H    -2.9417647    0.8953834    2.2239054
C    -2.0220674    0.425854    1.9013549
C    -0.8149418    1.0740453    2.1066982
H    -0.7851529    2.0443812    2.5856086
C    0.3704286    0.4492852    1.6847458
C    1.7508619    0.8038935    1.7194004
H    2.1870108    1.6998281    2.1275903
C    2.4451359    -0.2310742    1.1353313
N    1.5646462    -1.2137812    0.7555384
C    0.2861214    -0.8269486    1.0618752
C    -0.9284667    -1.4853121    0.8606937
H    -0.97292    -2.4554847    0.3834013
C    -2.0792848    -0.8417668    1.2876443
H    -3.0389974    -1.3203846    1.14684
H    1.8075741    -2.0366963    0.2333038
H    3.5028794    -0.3485344    0.9695233
$end


--------------------------------------------------------------
 ----------------------------------------------------------------
             Standard Nuclear Orientation (Angstroms)
    I     Atom           X                Y                Z
 ----------------------------------------------------------------
    1      H       3.1053227259    -1.1967362622    -0.0059259318
    2      C       2.1505936934    -0.6879808091    -0.0055138541
    3      C       0.9805550038    -1.4299092269    -0.0008518755
    4      H       1.0143056719    -2.5118742270     0.0017824165
    5      C      -0.2508839106    -0.7538787756     0.0027571086
    6      C      -1.6151403046    -1.1678105527    -0.0002526842
    7      H      -1.9938935307    -2.1757892165     0.0080341642
    8      C      -2.3807988931    -0.0241047084    -0.0041395929
    9      N      -1.5583828635     1.0752566943     0.0118036520
   10      C      -0.2496633004     0.6687403846     0.0015589090
   11      C       0.9280980504     1.4184140891     0.0044371013
   12      H       0.9091014950     2.5003806215     0.0018761335
   13      C       2.1259567367     0.7213235658     0.0000739140
   14      H       3.0590375801     1.2684151836     0.0002334954
   15      H      -1.8659029415     2.0279452595    -0.0703431873
   16      H      -3.4515934107     0.0920979805    -0.0066968120
 ----------------------------------------------------------------
 Molecular Point Group                 C1    NOp =  1
 Largest Abelian Subgroup              C1    NOp =  1
 Nuclear Repulsion Energy =   401.1435938881 hartrees
 There are       31 alpha and       31 beta electrons
 Requested basis set is 6-311++G(d,p)
 There are 89 shells and 247 basis functions

 Total QAlloc Memory Limit   2000 MB
 Mega-Array Size       188 MB
 MEM_STATIC part       192 MB

finished with qalloc call
 Job number = 2, Threshold = 1.00E-08
Integral type ranges set in mkLRange.C for JobNum: 2  <1-21|1-21>
Symmetry turned off temporarily
 Using the largest function pair in Schwarz integrals
Total number of integrals generated =          461708
Symmetry turned back on
 A cutoff of  1.0D-08 yielded   3437 shell pairs
 There are     27511 function pairs (     29552 Cartesian)
 Job number = 11, Threshold = 1.00E-08
Integral type ranges set in mkLRange.C for JobNum: 11  <1-21|22-22>
Total number of integrals generated =          472832
 Smallest overlap matrix eigenvalue = 4.56E-07

 Q-Chem warning in module /usr/local/qchem/stvman/mkSTV.C, line 295:

 Overlap eigenvalue is smaller than square root of threshold

 Linear dependence detected in AO basis
 Number of orthogonalized atomic orbitals = 246
 Maximum deviation from orthogonality = 1.966E-10
 Multipole matrices computed through 2nd order

 Scale SEOQF with 1.000000e-01/1.000000e-01/1.000000e-01

 Standard Electronic Orientation quadrupole field applied
 Nucleus-field energy     =     0.0000000117 hartrees
 ENuRep (before)= 401.1435938881
 ENucField = 0.0000000117
 ENuRep (after) = 401.1435938998
 Guess from superposition of atomic densities
 Warning:  Energy on first SCF cycle will be non-variational
 SAD guess density has 62.000000 electrons

 ==================================================
    GEN_SCFMAN: A general SCF calculation manager  
                                                   
    Authors:                                       
        -- Eric Jon Sundstrom 2008-2014            
        -- Paul Horn 2010-2015                     
        -- Yuezhi Mao 2012-                        
        -- Dmitri Zuev 2014                        
        -- Alec White 2015-                        
        -- David Stuck 2015                        
        -- Shaama M.S. 2015                        
        -- Shane Yost 2015-                         
        -- Joonho Lee 2016-                        
        -- David Small 2016-                       
        -- Daniel Levine 2016-                     
        -- Susi Lehtola 2017-                      
        -- Hugh Burton 2017-                       
 ==================================================
 Hartree-Fock
Finding J and K together
 Job number = 22, Threshold = 1.00E-08
Integral type ranges set in mkLRange.C for JobNum: 22  <1-21|1-21>
 MakeJK  time:  CPU      10.28 s  wall      10.32 s
 HF Exchange:              -52.27805621719304
 One-Electron:             -1277.91402838053182
 Total Coulomb:            563.23026487849609
 Nuclear repulsion:        401.14359389978841
 A restricted SCF calculation will be
 performed using DIIS
 SCF converges when DIIS error is below 1.0e-05
 ---------------------------------------
  Cycle       Energy         DIIS error
 ---------------------------------------
Finding J and K together
 Job number = 22, Threshold = 1.00E-08
Integral type ranges set in mkLRange.C for JobNum: 22  <1-21|1-21>
 MakeJK  time:  CPU      49.50 s  wall      49.65 s
 HF Exchange:              -50.51096295384424
 One-Electron:             -1283.97154798852739
 Total Coulomb:            571.89848884888841
 Nuclear repulsion:        401.14359389978841
    1    -365.8182258194      4.65e-02  
Finding J and K together
 Job number = 22, Threshold = 1.00E-08
Integral type ranges set in mkLRange.C for JobNum: 22  <1-21|1-21>
 MakeJK  time:  CPU      50.44 s  wall      51.27 s
 HF Exchange:              -50.61837292831974
 One-Electron:             -1283.44199134822838
 Total Coulomb:            571.38124116816346
 Nuclear repulsion:        401.14359389978841
    2    -361.4404281937      3.11e-03  
Finding J and K together
 Job number = 22, Threshold = 1.00E-08
Integral type ranges set in mkLRange.C for JobNum: 22  <1-21|1-21>
 MakeJK  time:  CPU      47.23 s  wall      47.70 s
 HF Exchange:              -50.64502876017468
 One-Electron:             -1283.74932568830491
 Total Coulomb:            571.70381772392579
 Nuclear repulsion:        401.14359389978841
    3    -361.5355292086      1.28e-03  
Finding J and K together
 Job number = 22, Threshold = 1.00E-08
Integral type ranges set in mkLRange.C for JobNum: 22  <1-21|1-21>
 MakeJK  time:  CPU      40.82 s  wall      41.19 s
 HF Exchange:              -50.66188708692480
 One-Electron:             -1283.78966623474253
 Total Coulomb:            571.75713543654058
 Nuclear repulsion:        401.14359389978841
    4    -361.5469428248      6.69e-04  
Finding J and K together
 Job number = 22, Threshold = 1.00E-08
Integral type ranges set in mkLRange.C for JobNum: 22  <1-21|1-21>
 MakeJK  time:  CPU      33.11 s  wall      33.38 s
 HF Exchange:              -50.65703454969764
 One-Electron:             -1283.69143104713362
 Total Coulomb:            571.65395858199793
 Nuclear repulsion:        401.14359389978841
    5    -361.5508239853      8.95e-05  
Finding J and K together
 Job number = 22, Threshold = 1.00E-08
Integral type ranges set in mkLRange.C for JobNum: 22  <1-21|1-21>
 MakeJK  time:  CPU      43.62 s  wall      44.05 s
 HF Exchange:              -50.65881391253517
 One-Electron:             -1283.71506932347597
 Total Coulomb:            571.67935788261912
 Nuclear repulsion:        401.14359389978841
    6    -361.5509131150      3.04e-05  
Finding J and K together
 Job number = 22, Threshold = 1.00E-08
Integral type ranges set in mkLRange.C for JobNum: 22  <1-21|1-21>
 MakeJK  time:  CPU      49.36 s  wall      49.71 s
 HF Exchange:              -50.65896276849861
 One-Electron:             -1283.71377927565186
 Total Coulomb:            571.67821222219220
 Nuclear repulsion:        401.14359389978841
    7    -361.5509314536      1.37e-05  
    8    -361.5509359222      6.35e-06  Convergence criterion met
 ---------------------------------------
 SCF time:   CPU 327.09s  wall 330.00s 
 Total energy in the final basis set =     -361.5509359222
 HF Exchange:              -50.65896276849861
 One-Electron:             -1283.71377927565186
 Total Coulomb:            571.67821222219220
 Nuclear repulsion:        401.14359389978841
Wall  1 = 330
Clock 1 = 327.46975708007812
 ==================================================
                  Done GEN_SCFMAN                  
 ==================================================

Symmetry turned off temporarily

 --------------------------------------------------------------

                    Orbital Energies (a.u.)
 --------------------------------------------------------------

 Alpha MOs
 -- Occupied --
-15.606 -11.274 -11.268 -11.234 -11.232 -11.230 -11.228 -11.223
-11.219  -1.304  -1.133  -1.060  -1.000  -0.977  -0.846  -0.810
 -0.793  -0.732  -0.666  -0.651  -0.606  -0.599  -0.586  -0.576
 -0.553  -0.510  -0.485  -0.466  -0.387  -0.302  -0.283
 -- Virtual --
  0.034   0.046   0.048   0.061   0.063   0.087   0.089   0.094
  0.121   0.124   0.133   0.138   0.149   0.151   0.156   0.163
  0.167   0.169   0.178   0.181   0.185   0.191   0.193   0.194
  0.211   0.218   0.228   0.233   0.235   0.241   0.247   0.248
  0.263   0.266   0.279   0.283   0.294   0.304   0.313   0.315
  0.333   0.337   0.344   0.358   0.365   0.377   0.390   0.391
  0.409   0.422   0.433   0.441   0.447   0.454   0.467   0.500
  0.516   0.556   0.585   0.611   0.645   0.649   0.706   0.724
  0.727   0.738   0.751   0.751   0.763   0.764   0.786   0.788
  0.803   0.810   0.839   0.853   0.863   0.888   0.917   0.920
  0.948   0.951   0.955   0.991   1.003   1.011   1.039   1.046
  1.062   1.064   1.076   1.085   1.097   1.113   1.126   1.141
  1.160   1.162   1.175   1.217   1.225   1.235   1.247   1.261
  1.313   1.319   1.338   1.361   1.390   1.407   1.416   1.453
  1.517   1.561   1.683   1.738   1.776   1.777   1.779   1.817
  1.838   1.843   1.866   1.879   1.917   1.935   1.954   1.998
  2.006   2.022   2.028   2.038   2.063   2.125   2.144   2.162
  2.191   2.195   2.218   2.226   2.241   2.254   2.259   2.261
  2.331   2.358   2.383   2.400   2.439   2.448   2.520   2.563
  2.634   2.663   2.701   2.767   2.819   2.828   2.861   2.879
  2.892   2.905   2.965   2.996   3.020   3.028   3.046   3.060
  3.067   3.080   3.094   3.107   3.131   3.153   3.177   3.228
  3.235   3.264   3.288   3.303   3.323   3.395   3.422   3.497
  3.550   3.615   3.698   3.787   3.838   3.850   3.908   3.918
  3.967   4.044   4.084   4.128   4.363   4.379   4.463   4.495
  4.536   4.628   4.844   5.269   5.431   5.643  24.774  25.019
 25.105  25.165  25.220  25.282  25.336  25.371  37.089
 --------------------------------------------------------------

          Ground-State Mulliken Net Atomic Charges

     Atom                 Charge (a.u.)
  ----------------------------------------
      1 H                     0.191017
      2 C                    -0.122078
      3 C                    -0.801012
      4 H                     0.182018
      5 C                     1.812930
      6 C                    -0.520792
      7 H                     0.184369
      8 C                     0.041463
      9 N                    -0.206466
     10 C                    -0.824596
     11 C                    -0.483213
     12 H                     0.186898
     13 C                    -0.377496
     14 H                     0.196393
     15 H                     0.330441
     16 H                     0.210122
  ----------------------------------------
  Sum of atomic charges =    -0.000000

 -----------------------------------------------------------------
                    Cartesian Multipole Moments
 -----------------------------------------------------------------
    Charge (ESU x 10^10)
                 0.0000
    Dipole Moment (Debye)
         X      -1.5009      Y       1.5273      Z      -0.1246
       Tot       2.1449
    Quadrupole Moments (Debye-Ang)
        XX     -45.2922     XY      -3.1203     YY     -44.4635
        XZ       0.2801     YZ      -0.3612     ZZ     -60.0091
    Octopole Moments (Debye-Ang^2)
       XXX     -15.5408    XXY       8.7164    XYY      -7.3937
       YYY      10.1772    XXZ      -0.5576    XYZ       0.7061
       YYZ      -0.6128    XZZ      -2.3451    YZZ       2.2490
       ZZZ      -0.0219
    Hexadecapole Moments (Debye-Ang^3)
      XXXX    -801.1284   XXXY     -21.8721   XXYY    -195.0819
      XYYY     -19.3487   YYYY    -362.9321   XXXZ       1.2289
      XXYZ      -1.3281   XYYZ       1.2701   YYYZ      -1.7371
      XXZZ    -190.9111   XYZZ      -4.3535   YYZZ     -94.3931
      XZZZ       0.1639   YZZZ      -0.3221   ZZZZ     -73.9188
 -----------------------------------------------------------------
 Mayer SCF Bond Order, atomic valence on the diagonal:

            1           2           3           4           5           6
    1   0.9344147   0.8739777  -0.0420658   0.0013529   0.0534452   0.0062950
    2   0.8739777   3.8240341   1.6865566   0.0642500  -0.0276646  -0.1285462
    3  -0.0420658   1.6865566   4.4244672   0.8326042   0.2162501   0.2056372
    4   0.0013529   0.0642500   0.8326042   0.9538099   0.0569165  -0.0004254
    5   0.0534452  -0.0276646   0.2162501   0.0569165   0.9244603  -0.0852185
    6   0.0062950  -0.1285462   0.2056372  -0.0004254  -0.0852185   3.9144448
    7  -0.0001542  -0.0062405  -0.0039997   0.0028483   0.0283999   0.8592659
    8  -0.0006636   0.0322106  -0.1099492   0.0169154   0.0605501   1.6463691
    9   0.0011427   0.0819559  -0.0811736  -0.0027325   0.6095776  -0.1439507
   10  -0.0040955  -0.4008292   1.1990672   0.0035654   0.2377437   1.1529140
   11  -0.0152507   0.0109938   0.2896212  -0.0154822  -0.0290746   0.3147925
   12   0.0004060  -0.0086827  -0.0171671   0.0000219   0.0014033   0.0021592
   13   0.0565228   1.6116145   0.2707534  -0.0070595  -0.3796657   0.0608277
   14   0.0033560   0.0323918  -0.0285553   0.0004707   0.0217414   0.0006911
   15   0.0001076   0.0014155  -0.0063066   0.0006151   0.1070091  -0.0187621
   16   0.0000387   0.0006308   0.0131947  -0.0000511   0.0530467   0.0423960
            7           8           9          10          11          12
    1  -0.0001542  -0.0006636   0.0011427  -0.0040955  -0.0152507   0.0004060
    2  -0.0062405   0.0322106   0.0819559  -0.4008292   0.0109938  -0.0086827
    3  -0.0039997  -0.1099492  -0.0811736   1.1990672   0.2896212  -0.0171671
    4   0.0028483   0.0169154  -0.0027325   0.0035654  -0.0154822   0.0000219
    5   0.0283999   0.0605501   0.6095776   0.2377437  -0.0290746   0.0014033
    6   0.8592659   1.6463691  -0.1439507   1.1529140   0.3147925   0.0021592
    7   0.9486275   0.0401240   0.0105074   0.0214156   0.0001195   0.0004694
    8   0.0401240   3.5312619   0.9888628  -0.0016214  -0.0311011   0.0034228
    9   0.0105074   0.9888628   2.3727254   0.4436143  -0.2963767  -0.0060411
   10   0.0214156  -0.0016214   0.4436143   4.3357655   1.5891634  -0.0034530
   11   0.0001195  -0.0311011  -0.2963767   1.5891634   4.6257236   0.8265301
   12   0.0004694   0.0034228  -0.0060411  -0.0034530   0.8265301   0.9284679
   13  -0.0060865   0.0084024  -0.0950530   0.1216492   2.0307437   0.1239173
   14   0.0001875  -0.0002737  -0.0002139   0.0563931  -0.0203864   0.0035383
   15   0.0008883   0.0034513   0.9142665  -0.0821129  -0.0227604   0.0016483
   16   0.0008825   0.8745625  -0.0516604   0.0023515  -0.0058087   0.0002951
           13          14          15          16
    1   0.0565228   0.0033560   0.0001076   0.0000387
    2   1.6116145   0.0323918   0.0014155   0.0006308
    3   0.2707534  -0.0285553  -0.0063066   0.0131947
    4  -0.0070595   0.0004707   0.0006151  -0.0000511
    5  -0.3796657   0.0217414   0.1070091   0.0530467
    6   0.0608277   0.0006911  -0.0187621   0.0423960
    7  -0.0060865   0.0001875   0.0008883   0.0008825
    8   0.0084024  -0.0002737   0.0034513   0.8745625
    9  -0.0950530  -0.0002139   0.9142665  -0.0516604
   10   0.1216492   0.0563931  -0.0821129   0.0023515
   11   2.0307437  -0.0203864  -0.0227604  -0.0058087
   12   0.1239173   0.0035383   0.0016483   0.0002951
   13   4.6305482   0.8520536  -0.0182433   0.0001714
   14   0.8520536   0.9210331  -0.0002484  -0.0001128
   15  -0.0182433  -0.0002484   0.8784856  -0.0024823
   16   0.0001714  -0.0001128  -0.0024823   0.9274548


 JobOver = TRUE
Archival summary:
1\1\qciep03\SP\HF\BasisUnspecified\187\jcartus\ThuJan2517:50:182018ThuJan2517:50:182018\0\\#,HF,BasisUnspecified,\\0,1\C\N,1,1.37044\H,2,1.00446,1,124.967\C,2,1.37303,1,109.536,3,173.113,0\H,4,1.07708,2,120.606,1,-179.545,0\C,4,1.37634,2,109.396,1,1.09644,0\H,6,1.07682,4,125.606,2,178.811,0\C,1,1.39612,2,130.264,3,6.54637,0\H,8,1.08214,1,121.471,2,-0.892645,0\C,8,1.38594,1,117.324,2,179.603,0\H,10,1.08164,8,119.418,1,179.885,0\C,10,1.40953,8,121.199,1,-0.0698485,0\H,12,1.08182,10,119.054,8,-179.825,0\C,12,1.38545,10,121.376,8,-0.291017,0\H,14,1.08249,12,120.593,10,-179.568,0\C,14,1.4048,12,118.856,10,0.321792,0\\HF=-361.550936\\@

 Total job time:  332.24s(wall), 328.78s(cpu) 
 Thu Jan 25 17:50:18 2018

        *************************************************************
        *                                                           *
        *  Thank you very much for using Q-Chem.  Have a nice day.  *
        *                                                           *
        *************************************************************


*** MISSION COMPLETED -- STARFLEET OUT ***

0 sent ACK to 0 
now end server 0 ... 
