Process 0 of 1 is on qciep03 - thread support 0
initial socket setup ...start
initial socket setup ...done 
now start server 0 ... 
qciep03.tugraz.at 127.0.1
Q-Chem Developer Version! Running on 127.0.1.*
                  Welcome to Q-Chem
     A Quantum Leap Into The Future Of Chemistry


 Q-Chem 5.0, Q-Chem, Inc., Pleasanton, CA (2017)

 Yihan Shao,  Zhengting Gan,  E. Epifanovsky,  A. T. B. Gilbert,  M. Wormit,  
 J. Kussmann,  A. W. Lange,  A. Behn,  Jia Deng,  Xintian Feng,  D. Ghosh,  
 M. Goldey,  P. R. Horn,  L. D. Jacobson,  I. Kaliman,  T. Kus,  A. Landau,  
 Jie Liu,  E. I. Proynov,  R. M. Richard,  R. P. Steele,  E. J. Sundstrom,  
 H. L. Woodcock III,  P. M. Zimmerman,  D. Zuev,  B. Albrecht,  E. Alguire,  
 S. A. Baeppler,  D. Barton,  Z. Benda,  Y. A. Bernard,  E. J. Berquist,  
 K. B. Bravaya,  H. Burton,  D. Casanova,  Chun-Min Chang,  Yunqing Chen,  
 A. Chien,  K. D. Closser,  M. P. Coons,  S. Dasgupta,  A. L. Dempwolff,  
 M. Diedenhofen,  Hainam Do,  R. G. Edgar,  Po-Tung Fang,  S. Fatehi,  
 Qingguo Feng,  J. Fosso-Tande,  Qinghui Ge,  A. Ghysels,  G. Gidofalvi,  
 J. Gomes,  J. Gonthier,  A. Gunina,  M. W. D. Hanson-Heine,  
 P. H. P. Harbach,  A. W. Hauser,  J. E. Herr,  E. G. Hohenstein,  
 Z. C. Holden,  Kerwin Hui,  T.-C. Jagau,  Hyunjun Ji,  B. Kaduk,  
 K. Khistyaev,  Jaehoon Kim,  P. Klunzinger,  K. Koh,  D. Kosenkov,  
 L. Koulias,  T. Kowalczyk,  C. M. Krauter,  A. Kunitsa,  Ka Un Lao,  
 A. Laurent,  K. V. Lawler,  Joonho Lee,  D. Lefrancois,  S. Lehtola,  
 D. S. Levine,  Yi-Pei Li,  You-Sheng Lin,  Fenglai Liu,  E. Livshits,  
 A. Luenser,  P. Manohar,  E. Mansoor,  S. F. Manzer,  Shan-Ping Mao,  
 Yuezhi Mao,  N. Mardirossian,  A. V. Marenich,  T. Markovich,  
 L. A. Martinez-Martinez,  S. A. Maurer,  N. J. Mayhall,  S. C. McKenzie,  
 J.-M. Mewes,  A. F. Morrison,  J. W. Mullinax,  K. Nanda,  
 T. S. Nguyen-Beck,  R. Olivares-Amaya,  J. A. Parkhill,  T. M. Perrine,  
 F. Plasser,  S. Prager,  A. Prociuk,  E. Ramos,  D. R. Rehn,  F. Rob,  
 M. Schneider,  N. Sergueev,  S. M. Sharada,  S. Sharma,  D. W. Small,  
 T. Stauch,  T. Stein,  Yu-Chuan Su,  A. J. W. Thom,  A. Tkatchenko,  
 T. Tsuchimochi,  L. Vogt,  O. Vydrov,  M. A. Watson,  J. Wenzel,  
 M. de Wergifosse,  T. A. Wesolowski,  A. White,  J. Witte,  A. Yamada,  
 Jun Yang,  K. Yao,  S. Yeganeh,  S. R. Yost,  Zhi-Qiang You,  A. Zech,  
 Igor Ying Zhang,  Xing Zhang,  Yan Zhao,  Ying Zhu,  B. R. Brooks,  
 G. K. L. Chan,  C. J. Cramer,  M. S. Gordon,  W. J. Hehre,  A. Klamt,  
 M. W. Schmidt,  C. D. Sherrill,  D. G. Truhlar,  A. Aspuru-Guzik,  R. Baer,  
 A. T. Bell,  N. A. Besley,  Jeng-Da Chai,  R. A. DiStasio Jr.,  A. Dreuw,  
 B. D. Dunietz,  T. R. Furlani,  Chao-Ping Hsu,  Yousung Jung,  Jing Kong,  
 D. S. Lambrecht,  WanZhen Liang,  C. Ochsenfeld,  V. A. Rassolov,  
 L. V. Slipchenko,  J. E. Subotnik,  T. Van Voorhis,  J. M. Herbert,  
 A. I. Krylov,  P. M. W. Gill,  M. Head-Gordon

 Contributors to earlier versions of Q-Chem not listed above: 
 R. D. Adamson,  B. Austin,  J. Baker,  G. J. O. Beran,  K. Brandhorst,  
 S. T. Brown,  E. F. C. Byrd,  A. K. Chakraborty,  C.-L. Cheng,  
 Siu Hung Chien,  D. M. Chipman,  D. L. Crittenden,  H. Dachsel,  
 R. J. Doerksen,  A. D. Dutoi,  L. Fusti-Molnar,  W. A. Goddard III,  
 A. Golubeva-Zadorozhnaya,  S. R. Gwaltney,  G. Hawkins,  A. Heyden,  
 S. Hirata,  G. Kedziora,  F. J. Keil,  C. Kelley,  Jihan Kim,  R. A. King,  
 R. Z. Khaliullin,  P. P. Korambath,  W. Kurlancheek,  A. M. Lee,  M. S. Lee,  
 S. V. Levchenko,  Ching Yeh Lin,  D. Liotard,  R. C. Lochan,  I. Lotan,  
 P. E. Maslen,  N. Nair,  D. P. O'Neill,  D. Neuhauser,  E. Neuscamman,  
 C. M. Oana,  R. Olson,  B. Peters,  R. Peverati,  P. A. Pieniazek,  
 Y. M. Rhee,  J. Ritchie,  M. A. Rohrdanz,  E. Rosta,  N. J. Russ,  
 H. F. Schaefer III,  N. E. Schultz,  N. Shenvi,  A. C. Simmonett,  A. Sodt,  
 D. Stuck,  K. S. Thanthiriwatte,  V. Vanovschi,  Tao Wang,  A. Warshel,  
 C. F. Williams,  Q. Wu,  X. Xu,  W. Zhang

 Please cite Q-Chem as follows:
 Y. Shao et al., Mol. Phys. 113, 184-215 (2015)
 DOI: 10.1080/00268976.2014.952696

 Q-Chem 5.0.2 for Intel X86 EM64T Linux

 Parts of Q-Chem use Armadillo 5.200.1 (Boston Tea Smuggler).
 http://arma.sourceforge.net/

 Q-Chem begins on Thu Jan 25 17:26:35 2018  


Host: 0

     Scratch files written to /home/jcartus/scratch/Indole-benzene-T-shape-complex_mono2.dir//
 Using version located at /usr/local/qchem/bin/qchem

 Parallel job on  1  processors

Total Memory Limit in MB = 2000
Mega-Array Size in MB = 192

Checking the input file for inconsistencies... 	...done.
Finally everything over in PARseQInput

--------------------------------------------------------------
User input:
--------------------------------------------------------------
$rem
SCF_PRINT                     1
BASIS                         6-311++g**
SCF_SAVE_MATRICES             1
SCF_CONVERGENCE               5
SCF_FINAL_PRINT               1
METHOD                        hf
JOBTYPE                       sp
$end

$molecule
0 1
C    2.5118997    1.6250148    0.0
C    2.7130094    0.9578537    -1.2082918
C    3.1177821    -0.3767436    -1.2083647
C    3.3213848    -1.0437307    0.0
C    3.1177821    -0.3767436    1.2083647
C    2.7130094    0.9578537    1.2082918
H    2.2024038    2.6611358    0.0
H    2.551176    1.4736908    -2.14459
H    3.2702999    -0.8951406    -2.1448379
H    3.6368139    -2.0781521    0.0
H    3.2702999    -0.8951406    2.1448379
H    2.551176    1.4736908    2.14459
$end


--------------------------------------------------------------
 I, IOp=           1           2  D=   1.4030156076525068E-013 Fix sym
 I,J,IOp=           2           6           2  D=   1.4026911132225976E-013 Fix sym
 I,J,IOp=           3           5           2  D=   1.3985496677442857E-013 Fix sym
 I, IOp=           4           2  D=   1.4017168128351579E-013 Fix sym
 I, IOp=           7           2  D=   2.4905376086081099E-013 Fix sym
 I,J,IOp=           8          12           2  D=   2.4825699036635775E-013 Fix sym
 I,J,IOp=           9          11           2  D=   2.4869987007851120E-013 Fix sym
 I, IOp=          10           2  D=   2.4893341937137837E-013 Fix sym
 ----------------------------------------------------------------
             Standard Nuclear Orientation (Angstroms)
    I     Atom           X                Y                Z
 ----------------------------------------------------------------
    1      C      -0.0009623878    -1.3942102571     0.0000000000
    2      C       0.0001562585    -0.6973976615    -1.2082918000
    3      C       0.0000299112     0.6972316354    -1.2083647000
    4      C      -0.0012876827     1.3946010605    -0.0000000000
    5      C       0.0000299112     0.6972316354     1.2083647000
    6      C       0.0001562585    -0.6973976615     1.2082918000
    7      H      -0.0054112236    -2.4755587886     0.0000000000
    8      H       0.0053576024    -1.2380000192    -2.1445900000
    9      H       0.0044861761     1.2375808472    -2.1448379000
   10      H      -0.0030099466     2.4760446252    -0.0000000000
   11      H       0.0044861761     1.2375808472     2.1448379000
   12      H       0.0053576024    -1.2380000192     2.1445900000
 ----------------------------------------------------------------
 Molecular Point Group                 Cs    NOp =  2
 Largest Abelian Subgroup              Cs    NOp =  2
 Nuclear Repulsion Energy =   203.5658304904 hartrees
 There are       21 alpha and       21 beta electrons
 Requested basis set is 6-311++G(d,p)
 There are 66 shells and 174 basis functions

 Total QAlloc Memory Limit   2000 MB
 Mega-Array Size       188 MB
 MEM_STATIC part       192 MB

finished with qalloc call

                       Distance Matrix (Angstroms)
             C (  1)   C (  2)   C (  3)   C (  4)   C (  5)   C (  6)
   C (  2)  1.394818
   C (  3)  2.415424  1.394629
   C (  4)  2.788811  2.415870  1.395160
   C (  5)  2.415424  2.790201  2.416729  1.395160
   C (  6)  1.394818  2.416584  2.790201  2.415870  1.394629
   H (  7)  1.081358  2.149850  3.395110  3.870162  3.395110  2.149850
   H (  8)  2.150281  1.081172  2.149806  3.395570  3.871363  3.396188
   H (  9)  3.395097  2.149716  1.081193  2.150586  3.396464  3.871387
   H ( 10)  3.870255  3.395691  2.150426  1.081445  2.150426  3.395691
   H ( 11)  3.395097  3.871387  3.396464  2.150586  1.081193  2.149716
   H ( 12)  2.150281  3.396188  3.871363  3.395570  2.149806  1.081172
             H (  7)   H (  8)   H (  9)   H ( 10)   H ( 11)
   H (  8)  2.476072
   H (  9)  4.288104  2.475581
   H ( 10)  4.951604  4.288760  2.476727
   H ( 11)  4.288104  4.952544  4.289676  2.476727
   H ( 12)  2.476072  4.289180  4.952544  4.288760  2.475581

 Job number = 2, Threshold = 1.00E-08
Integral type ranges set in mkLRange.C for JobNum: 2  <1-21|1-21>
Symmetry turned off temporarily
 Using the largest function pair in Schwarz integrals
Total number of integrals generated =          233997
Symmetry turned back on
 A cutoff of  1.0D-08 yielded   2055 shell pairs
 There are     14694 function pairs (     15765 Cartesian)
 Job number = 11, Threshold = 1.00E-08
Integral type ranges set in mkLRange.C for JobNum: 11  <1-21|22-22>
Total number of integrals generated =          106440
 Smallest overlap matrix eigenvalue = 1.07E-06

 Q-Chem warning in module /usr/local/qchem/stvman/mkSTV.C, line 295:

 Overlap eigenvalue is smaller than square root of threshold

 Multipole matrices computed through 2nd order

 Scale SEOQF with 1.000000e-01/1.000000e-01/1.000000e-01

 Standard Electronic Orientation quadrupole field applied
 Nucleus-field energy     =    -0.0000000019 hartrees
 ENuRep (before)= 203.5658304904
 ENucField = -0.0000000019
 ENuRep (after) = 203.5658304885
 Guess from superposition of atomic densities
 Warning:  Energy on first SCF cycle will be non-variational
 SAD guess density has 42.000000 electrons

 ==================================================
    GEN_SCFMAN: A general SCF calculation manager  
                                                   
    Authors:                                       
        -- Eric Jon Sundstrom 2008-2014            
        -- Paul Horn 2010-2015                     
        -- Yuezhi Mao 2012-                        
        -- Dmitri Zuev 2014                        
        -- Alec White 2015-                        
        -- David Stuck 2015                        
        -- Shaama M.S. 2015                        
        -- Shane Yost 2015-                         
        -- Joonho Lee 2016-                        
        -- David Small 2016-                       
        -- Daniel Levine 2016-                     
        -- Susi Lehtola 2017-                      
        -- Hugh Burton 2017-                       
 ==================================================
 Hartree-Fock
Finding J and K together
 Job number = 22, Threshold = 1.00E-08
Integral type ranges set in mkLRange.C for JobNum: 22  <1-21|1-21>
 MakeJK  time:  CPU       1.83 s  wall       1.86 s
 HF Exchange:              -34.14388393608537
 One-Electron:             -709.09568293407540
 Total Coulomb:            306.43192848334149
 Nuclear repulsion:        203.56583048847045
 A restricted SCF calculation will be
 performed using DIIS
 SCF converges when DIIS error is below 1.0e-05
 ---------------------------------------
  Cycle       Energy         DIIS error
 ---------------------------------------
Finding J and K together
 Job number = 22, Threshold = 1.00E-08
Integral type ranges set in mkLRange.C for JobNum: 22  <1-21|1-21>
 MakeJK  time:  CPU       6.80 s  wall       6.83 s
 HF Exchange:              -33.16377309504483
 One-Electron:             -713.88799923816975
 Total Coulomb:            312.79386179888337
 Nuclear repulsion:        203.56583048847045
    1    -233.2418078983      5.18e-02  
Finding J and K together
 Job number = 22, Threshold = 1.00E-08
Integral type ranges set in mkLRange.C for JobNum: 22  <1-21|1-21>
 MakeJK  time:  CPU       9.20 s  wall       9.32 s
 HF Exchange:              -33.20883430339017
 One-Electron:             -713.10649877760659
 Total Coulomb:            311.99820434761398
 Nuclear repulsion:        203.56583048847045
    2    -230.6920800459      3.32e-03  
Finding J and K together
 Job number = 22, Threshold = 1.00E-08
Integral type ranges set in mkLRange.C for JobNum: 22  <1-21|1-21>
 MakeJK  time:  CPU       9.83 s  wall       9.87 s
 HF Exchange:              -33.26379459706919
 One-Electron:             -713.74584527984200
 Total Coulomb:            312.68806177861916
 Nuclear repulsion:        203.56583048847045
    3    -230.7512982449      9.04e-04  
Finding J and K together
 Job number = 22, Threshold = 1.00E-08
Integral type ranges set in mkLRange.C for JobNum: 22  <1-21|1-21>
 MakeJK  time:  CPU       9.99 s  wall      10.02 s
 HF Exchange:              -33.24978514531391
 One-Electron:             -713.45715824405181
 Total Coulomb:            312.38487137780777
 Nuclear repulsion:        203.56583048847045
    4    -230.7557476098      3.45e-04  
Finding J and K together
 Job number = 22, Threshold = 1.00E-08
Integral type ranges set in mkLRange.C for JobNum: 22  <1-21|1-21>
 MakeJK  time:  CPU       9.40 s  wall       9.48 s
 HF Exchange:              -33.25084417906542
 One-Electron:             -713.46928378171026
 Total Coulomb:            312.39804528662910
 Nuclear repulsion:        203.56583048847045
    5    -230.7562415231      3.46e-05  
    6    -230.7562521857      6.41e-06  Convergence criterion met
 ---------------------------------------
 SCF time:   CPU 47.92s  wall 49.00s 
 Total energy in the final basis set =     -230.7562521857
 HF Exchange:              -33.25084417906542
 One-Electron:             -713.46928378171026
 Total Coulomb:            312.39804528662910
 Nuclear repulsion:        203.56583048847045
Wall  1 = 49
Clock 1 = 48.07863998413086
 ==================================================
                  Done GEN_SCFMAN                  
 ==================================================

Symmetry turned off temporarily

 --------------------------------------------------------------
             Orbital Energies (a.u.) and Symmetries
 --------------------------------------------------------------

 Alpha MOs, Restricted
 -- Occupied --                  
-11.239 -11.238 -11.238 -11.237 -11.237 -11.236  -1.152  -1.017
  1 A'    2 A'    1 A"    3 A'    2 A"    4 A'    5 A'    3 A"                 
 -1.016  -0.826  -0.826  -0.711  -0.646  -0.621  -0.590  -0.590
  6 A'    7 A'    4 A"    8 A'    9 A'    5 A"    6 A"   10 A'                 
 -0.502  -0.497  -0.496  -0.337  -0.337
 11 A'    7 A"   12 A'    8 A"   13 A'                                         
 -- Virtual --                   
  0.042   0.049   0.049   0.066   0.066   0.088   0.109   0.109
 14 A'    9 A"   15 A'   10 A"   16 A'   17 A'   18 A'   11 A"                 
  0.129   0.153   0.153   0.158   0.163   0.181   0.181   0.183
 19 A'   12 A"   20 A'   21 A'   13 A"   22 A'   14 A"   15 A"                 
  0.183   0.193   0.209   0.212   0.212   0.216   0.216   0.218
 23 A'   24 A'   25 A'   16 A"   26 A'   27 A'   17 A"   28 A'                 
  0.228   0.228   0.250   0.250   0.289   0.289   0.303   0.333
 18 A"   29 A'   30 A'   19 A"   20 A"   31 A'   21 A"   32 A'                 
  0.335   0.368   0.409   0.409   0.430   0.430   0.441   0.498
 33 A'   34 A'   22 A"   35 A'   36 A'   23 A"   37 A'   38 A'                 
  0.498   0.508   0.508   0.604   0.610   0.716   0.723   0.723
 24 A"   39 A'   25 A"   26 A"   40 A'   41 A'   27 A"   42 A'                 
  0.728   0.751   0.751   0.751   0.758   0.758   0.797   0.820
 43 A'   28 A"   44 A'   29 A"   30 A"   45 A'   46 A'   47 A'                 
  0.820   0.886   0.940   0.940   0.951   0.951   0.976   1.016
 31 A"   48 A'   32 A"   49 A'   50 A'   33 A"   51 A'   34 A"                 
  1.016   1.017   1.059   1.059   1.106   1.122   1.122   1.130
 52 A'   53 A'   54 A'   35 A"   55 A'   36 A"   56 A'   37 A"                 
  1.170   1.218   1.219   1.249   1.323   1.323   1.391   1.391
 57 A'   38 A"   58 A'   39 A"   40 A"   59 A'   41 A"   60 A'                 
  1.524   1.558   1.711   1.786   1.786   1.795   1.826   1.845
 61 A'   62 A'   42 A"   43 A"   63 A'   64 A'   65 A'   66 A'                 
  1.845   1.907   1.908   1.933   1.933   1.992   2.056   2.056
 44 A"   45 A"   67 A'   68 A'   46 A"   69 A'   47 A"   70 A'                 
  2.103   2.104   2.131   2.236   2.236   2.239   2.248   2.248
 48 A"   71 A'   49 A"   72 A'   50 A"   51 A"   52 A"   73 A'                 
  2.298   2.347   2.347   2.379   2.380   2.640   2.662   2.743
 74 A'   75 A'   53 A"   76 A'   54 A"   77 A'   55 A"   78 A'                 
  2.743   2.747   2.817   2.817   2.962   2.962   2.988   2.994
 56 A"   79 A'   80 A'   57 A"   81 A'   58 A"   82 A'   83 A'                 
  3.022   3.022   3.045   3.045   3.058   3.088   3.192   3.192
 59 A"   84 A'   60 A"   85 A'   86 A'   87 A'   88 A'   61 A"                 
  3.266   3.293   3.293   3.329   3.329   3.481   3.547   3.774
 62 A"   89 A'   63 A"   90 A'   64 A"   91 A'   65 A"   66 A"                 
  3.775   3.906   3.907   3.921   4.080   4.410   4.411   4.500
 92 A'   93 A'   67 A"   94 A'   95 A'   96 A'   68 A"   97 A'                 
  4.576   4.576   5.277  24.753  25.137  25.138  25.258  25.258
 98 A'   69 A"   70 A"   99 A'   71 A"  100 A'  101 A'   72 A"                 
 25.369
102 A'                                                                         

 Beta MOs, Restricted
 -- Occupied --                  
-11.239 -11.238 -11.238 -11.237 -11.237 -11.236  -1.152  -1.017
  1 A'    2 A'    1 A"    3 A'    2 A"    4 A'    5 A'    3 A"                 
 -1.016  -0.826  -0.826  -0.711  -0.646  -0.621  -0.590  -0.590
  6 A'    7 A'    4 A"    8 A'    9 A'    5 A"    6 A"   10 A'                 
 -0.502  -0.497  -0.496  -0.337  -0.337
 11 A'    7 A"   12 A'    8 A"   13 A'                                         
 -- Virtual --                   
  0.042   0.049   0.049   0.066   0.066   0.088   0.109   0.109
 14 A'    9 A"   15 A'   10 A"   16 A'   17 A'   18 A'   11 A"                 
  0.129   0.153   0.153   0.158   0.163   0.181   0.181   0.183
 19 A'   12 A"   20 A'   21 A'   13 A"   22 A'   14 A"   15 A"                 
  0.183   0.193   0.209   0.212   0.212   0.216   0.216   0.218
 23 A'   24 A'   25 A'   16 A"   26 A'   27 A'   17 A"   28 A'                 
  0.228   0.228   0.250   0.250   0.289   0.289   0.303   0.333
 18 A"   29 A'   30 A'   19 A"   20 A"   31 A'   21 A"   32 A'                 
  0.335   0.368   0.409   0.409   0.430   0.430   0.441   0.498
 33 A'   34 A'   22 A"   35 A'   36 A'   23 A"   37 A'   38 A'                 
  0.498   0.508   0.508   0.604   0.610   0.716   0.723   0.723
 24 A"   39 A'   25 A"   26 A"   40 A'   41 A'   27 A"   42 A'                 
  0.728   0.751   0.751   0.751   0.758   0.758   0.797   0.820
 43 A'   28 A"   44 A'   29 A"   30 A"   45 A'   46 A'   47 A'                 
  0.820   0.886   0.940   0.940   0.951   0.951   0.976   1.016
 31 A"   48 A'   32 A"   49 A'   50 A'   33 A"   51 A'   34 A"                 
  1.016   1.017   1.059   1.059   1.106   1.122   1.122   1.130
 52 A'   53 A'   54 A'   35 A"   55 A'   36 A"   56 A'   37 A"                 
  1.170   1.218   1.219   1.249   1.323   1.323   1.391   1.391
 57 A'   38 A"   58 A'   39 A"   40 A"   59 A'   41 A"   60 A'                 
  1.524   1.558   1.711   1.786   1.786   1.795   1.826   1.845
 61 A'   62 A'   42 A"   43 A"   63 A'   64 A'   65 A'   66 A'                 
  1.845   1.907   1.908   1.933   1.933   1.992   2.056   2.056
 44 A"   45 A"   67 A'   68 A'   46 A"   69 A'   47 A"   70 A'                 
  2.103   2.104   2.131   2.236   2.236   2.239   2.248   2.248
 48 A"   71 A'   49 A"   72 A'   50 A"   51 A"   52 A"   73 A'                 
  2.298   2.347   2.347   2.379   2.380   2.640   2.662   2.743
 74 A'   75 A'   53 A"   76 A'   54 A"   77 A'   55 A"   78 A'                 
  2.743   2.747   2.817   2.817   2.962   2.962   2.988   2.994
 56 A"   79 A'   80 A'   57 A"   81 A'   58 A"   82 A'   83 A'                 
  3.022   3.022   3.045   3.045   3.058   3.088   3.192   3.192
 59 A"   84 A'   60 A"   85 A'   86 A'   87 A'   88 A'   61 A"                 
  3.266   3.293   3.293   3.329   3.329   3.481   3.547   3.774
 62 A"   89 A'   63 A"   90 A'   64 A"   91 A'   65 A"   66 A"                 
  3.775   3.906   3.907   3.921   4.080   4.410   4.411   4.500
 92 A'   93 A'   67 A"   94 A'   95 A'   96 A'   68 A"   97 A'                 
  4.576   4.576   5.277  24.753  25.137  25.138  25.258  25.258
 98 A'   69 A"   70 A"   99 A'   71 A"  100 A'  101 A'   72 A"                 
 25.369
102 A'                                                                         
 --------------------------------------------------------------

          Ground-State Mulliken Net Atomic Charges

     Atom                 Charge (a.u.)
  ----------------------------------------
      1 C                    -0.191105
      2 C                    -0.193654
      3 C                    -0.192283
      4 C                    -0.193116
      5 C                    -0.192283
      6 C                    -0.193654
      7 H                     0.192655
      8 H                     0.192648
      9 H                     0.192687
     10 H                     0.192768
     11 H                     0.192687
     12 H                     0.192648
  ----------------------------------------
  Sum of atomic charges =    -0.000000

 -----------------------------------------------------------------
                    Cartesian Multipole Moments
 -----------------------------------------------------------------
    Charge (ESU x 10^10)
                -0.0000
    Dipole Moment (Debye)
         X       0.0098      Y      -0.0004      Z       0.0000
       Tot       0.0098
    Quadrupole Moments (Debye-Ang)
        XX     -41.3225     XY       0.0046     YY     -31.9226
        XZ       0.0000     YZ       0.0000     ZZ     -31.9040
    Octopole Moments (Debye-Ang^2)
       XXX       0.0182    XXY      -0.0031    XYY      -0.0165
       YYY       0.0039    XXZ       0.0000    XYZ      -0.0000
       YYZ      -0.0000    XZZ       0.1076    YZZ      -0.0041
       ZZZ       0.0000
    Hexadecapole Moments (Debye-Ang^3)
      XXXX     -52.2089   XXXY       0.0071   XXYY     -66.1208
      XYYY       0.0508   YYYY    -270.5903   XXXZ       0.0000
      XXYZ      -0.0000   XYYZ       0.0000   YYYZ       0.0000
      XXZZ     -66.1543   XYZZ      -0.0107   YYZZ     -90.2114
      XZZZ       0.0000   YZZZ       0.0000   ZZZZ    -270.6675
 -----------------------------------------------------------------
 Mayer SCF Bond Order, atomic valence on the diagonal:

            1           2           3           4           5           6
    1   4.4307407   1.8289954  -0.0973822   0.0487071  -0.0973822   1.8289954
    2   1.8289954   4.4309837   1.8281903  -0.0959589   0.0478238  -0.0951753
    3  -0.0973822   1.8281903   4.4299315   1.8291308  -0.0962631   0.0478238
    4   0.0487071  -0.0959589   1.8291308   4.4326369   1.8291308  -0.0959589
    5  -0.0973822   0.0478238  -0.0962631   1.8291308   4.4299315   1.8281903
    6   1.8289954  -0.0951753   0.0478238  -0.0959589   1.8281903   4.4309837
    7   0.7794747   0.0904109  -0.0263250   0.0100936  -0.0263250   0.0904109
    8   0.0908456   0.7791794   0.0906396  -0.0263289   0.0101129  -0.0263893
    9  -0.0262821   0.0903475   0.7794568   0.0906024  -0.0262619   0.0100460
   10   0.0102055  -0.0264861   0.0908095   0.7789454   0.0908095  -0.0264861
   11  -0.0262821   0.0100460  -0.0262619   0.0906024   0.7794568   0.0903475
   12   0.0908456  -0.0263893   0.0101129  -0.0263289   0.0906396   0.7791794
            7           8           9          10          11          12
    1   0.7794747   0.0908456  -0.0262821   0.0102055  -0.0262821   0.0908456
    2   0.0904109   0.7791794   0.0903475  -0.0264861   0.0100460  -0.0263893
    3  -0.0263250   0.0906396   0.7794568   0.0908095  -0.0262619   0.0101129
    4   0.0100936  -0.0263289   0.0906024   0.7789454   0.0906024  -0.0263289
    5  -0.0263250   0.0101129  -0.0262619   0.0908095   0.7794568   0.0906396
    6   0.0904109  -0.0263893   0.0100460  -0.0264861   0.0903475   0.7791794
    7   0.9405464   0.0107943   0.0006096  -0.0000015   0.0006096   0.0107943
    8   0.0107943   0.9408431   0.0107813   0.0006063  -0.0000007   0.0006025
    9   0.0006096   0.0107813   0.9407141   0.0108102   0.0006049  -0.0000007
   10  -0.0000015   0.0006063   0.0108102   0.9406293   0.0108102   0.0006063
   11   0.0006096  -0.0000007   0.0006049   0.0108102   0.9407141   0.0107813
   12   0.0107943   0.0006025  -0.0000007   0.0006063   0.0107813   0.9408431


 JobOver = TRUE
Archival summary:
1\1\qciep03\SP\HF\BasisUnspecified\66\jcartus\ThuJan2517:27:242018ThuJan2517:27:242018\0\\#,HF,BasisUnspecified,\\0,1\C\H,1,1.08136\C,1,1.39482,2,119.972\H,3,1.08117,1,120.027,2,0.537423,0\C,3,1.39463,1,119.975,2,-179.722,0\H,5,1.08119,3,119.988,1,-179.78,0\C,1,1.39482,2,119.972,3,-179.834,0\H,7,1.08117,1,120.027,2,-0.537423,0\C,7,1.39463,1,119.975,2,179.722,0\H,9,1.08119,7,119.988,1,179.78,0\C,5,1.39516,3,119.987,1,0.00343747,0\H,11,1.08144,5,119.99,3,179.901,0\\HF=-230.756252\\@

 Total job time:  49.66s(wall), 48.98s(cpu) 
 Thu Jan 25 17:27:24 2018

        *************************************************************
        *                                                           *
        *  Thank you very much for using Q-Chem.  Have a nice day.  *
        *                                                           *
        *************************************************************


*** MISSION COMPLETED -- STARFLEET OUT ***

0 sent ACK to 0 
now end server 0 ... 
