Process 0 of 1 is on qciep03 - thread support 0
initial socket setup ...start
initial socket setup ...done 
now start server 0 ... 
qciep03.tugraz.at 127.0.1
Q-Chem Developer Version! Running on 127.0.1.*
                  Welcome to Q-Chem
     A Quantum Leap Into The Future Of Chemistry


 Q-Chem 5.0, Q-Chem, Inc., Pleasanton, CA (2017)

 Yihan Shao,  Zhengting Gan,  E. Epifanovsky,  A. T. B. Gilbert,  M. Wormit,  
 J. Kussmann,  A. W. Lange,  A. Behn,  Jia Deng,  Xintian Feng,  D. Ghosh,  
 M. Goldey,  P. R. Horn,  L. D. Jacobson,  I. Kaliman,  T. Kus,  A. Landau,  
 Jie Liu,  E. I. Proynov,  R. M. Richard,  R. P. Steele,  E. J. Sundstrom,  
 H. L. Woodcock III,  P. M. Zimmerman,  D. Zuev,  B. Albrecht,  E. Alguire,  
 S. A. Baeppler,  D. Barton,  Z. Benda,  Y. A. Bernard,  E. J. Berquist,  
 K. B. Bravaya,  H. Burton,  D. Casanova,  Chun-Min Chang,  Yunqing Chen,  
 A. Chien,  K. D. Closser,  M. P. Coons,  S. Dasgupta,  A. L. Dempwolff,  
 M. Diedenhofen,  Hainam Do,  R. G. Edgar,  Po-Tung Fang,  S. Fatehi,  
 Qingguo Feng,  J. Fosso-Tande,  Qinghui Ge,  A. Ghysels,  G. Gidofalvi,  
 J. Gomes,  J. Gonthier,  A. Gunina,  M. W. D. Hanson-Heine,  
 P. H. P. Harbach,  A. W. Hauser,  J. E. Herr,  E. G. Hohenstein,  
 Z. C. Holden,  Kerwin Hui,  T.-C. Jagau,  Hyunjun Ji,  B. Kaduk,  
 K. Khistyaev,  Jaehoon Kim,  P. Klunzinger,  K. Koh,  D. Kosenkov,  
 L. Koulias,  T. Kowalczyk,  C. M. Krauter,  A. Kunitsa,  Ka Un Lao,  
 A. Laurent,  K. V. Lawler,  Joonho Lee,  D. Lefrancois,  S. Lehtola,  
 D. S. Levine,  Yi-Pei Li,  You-Sheng Lin,  Fenglai Liu,  E. Livshits,  
 A. Luenser,  P. Manohar,  E. Mansoor,  S. F. Manzer,  Shan-Ping Mao,  
 Yuezhi Mao,  N. Mardirossian,  A. V. Marenich,  T. Markovich,  
 L. A. Martinez-Martinez,  S. A. Maurer,  N. J. Mayhall,  S. C. McKenzie,  
 J.-M. Mewes,  A. F. Morrison,  J. W. Mullinax,  K. Nanda,  
 T. S. Nguyen-Beck,  R. Olivares-Amaya,  J. A. Parkhill,  T. M. Perrine,  
 F. Plasser,  S. Prager,  A. Prociuk,  E. Ramos,  D. R. Rehn,  F. Rob,  
 M. Schneider,  N. Sergueev,  S. M. Sharada,  S. Sharma,  D. W. Small,  
 T. Stauch,  T. Stein,  Yu-Chuan Su,  A. J. W. Thom,  A. Tkatchenko,  
 T. Tsuchimochi,  L. Vogt,  O. Vydrov,  M. A. Watson,  J. Wenzel,  
 M. de Wergifosse,  T. A. Wesolowski,  A. White,  J. Witte,  A. Yamada,  
 Jun Yang,  K. Yao,  S. Yeganeh,  S. R. Yost,  Zhi-Qiang You,  A. Zech,  
 Igor Ying Zhang,  Xing Zhang,  Yan Zhao,  Ying Zhu,  B. R. Brooks,  
 G. K. L. Chan,  C. J. Cramer,  M. S. Gordon,  W. J. Hehre,  A. Klamt,  
 M. W. Schmidt,  C. D. Sherrill,  D. G. Truhlar,  A. Aspuru-Guzik,  R. Baer,  
 A. T. Bell,  N. A. Besley,  Jeng-Da Chai,  R. A. DiStasio Jr.,  A. Dreuw,  
 B. D. Dunietz,  T. R. Furlani,  Chao-Ping Hsu,  Yousung Jung,  Jing Kong,  
 D. S. Lambrecht,  WanZhen Liang,  C. Ochsenfeld,  V. A. Rassolov,  
 L. V. Slipchenko,  J. E. Subotnik,  T. Van Voorhis,  J. M. Herbert,  
 A. I. Krylov,  P. M. W. Gill,  M. Head-Gordon

 Contributors to earlier versions of Q-Chem not listed above: 
 R. D. Adamson,  B. Austin,  J. Baker,  G. J. O. Beran,  K. Brandhorst,  
 S. T. Brown,  E. F. C. Byrd,  A. K. Chakraborty,  C.-L. Cheng,  
 Siu Hung Chien,  D. M. Chipman,  D. L. Crittenden,  H. Dachsel,  
 R. J. Doerksen,  A. D. Dutoi,  L. Fusti-Molnar,  W. A. Goddard III,  
 A. Golubeva-Zadorozhnaya,  S. R. Gwaltney,  G. Hawkins,  A. Heyden,  
 S. Hirata,  G. Kedziora,  F. J. Keil,  C. Kelley,  Jihan Kim,  R. A. King,  
 R. Z. Khaliullin,  P. P. Korambath,  W. Kurlancheek,  A. M. Lee,  M. S. Lee,  
 S. V. Levchenko,  Ching Yeh Lin,  D. Liotard,  R. C. Lochan,  I. Lotan,  
 P. E. Maslen,  N. Nair,  D. P. O'Neill,  D. Neuhauser,  E. Neuscamman,  
 C. M. Oana,  R. Olson,  B. Peters,  R. Peverati,  P. A. Pieniazek,  
 Y. M. Rhee,  J. Ritchie,  M. A. Rohrdanz,  E. Rosta,  N. J. Russ,  
 H. F. Schaefer III,  N. E. Schultz,  N. Shenvi,  A. C. Simmonett,  A. Sodt,  
 D. Stuck,  K. S. Thanthiriwatte,  V. Vanovschi,  Tao Wang,  A. Warshel,  
 C. F. Williams,  Q. Wu,  X. Xu,  W. Zhang

 Please cite Q-Chem as follows:
 Y. Shao et al., Mol. Phys. 113, 184-215 (2015)
 DOI: 10.1080/00268976.2014.952696

 Q-Chem 5.0.2 for Intel X86 EM64T Linux

 Parts of Q-Chem use Armadillo 5.200.1 (Boston Tea Smuggler).
 http://arma.sourceforge.net/

 Q-Chem begins on Thu Feb  1 11:58:23 2018  


Host: 0

     Scratch files written to /home/jcartus/scratch/14_bromomethane-formaldehyde_mono1.dir//
 Using version located at /usr/local/qchem/bin/qchem

 Parallel job on  1  processors

Total Memory Limit in MB = 2000
Mega-Array Size in MB = 192

Checking the input file for inconsistencies... 	...done.
Finally everything over in PARseQInput

--------------------------------------------------------------
User input:
--------------------------------------------------------------
$rem
SCF_PRINT                     1
BASIS                         6-311++g**
SCF_SAVE_MATRICES             1
SCF_CONVERGENCE               5
SCF_FINAL_PRINT               1
METHOD                        hf
JOBTYPE                       sp
$end

$molecule
0 1
C    0.081577546    -0.079576968    -0.122248507
Br    1.796548323    0.3971285    0.629679005
H    0.013255521    -1.160016154    -0.156779811
H    -0.692267287    0.331402893    0.514488442
H    0.018180933    0.339827727    -1.118895585
$end


--------------------------------------------------------------
 ----------------------------------------------------------------
             Standard Nuclear Orientation (Angstroms)
    I     Atom           X                Y                Z
 ----------------------------------------------------------------
    1      C      -1.5138969053     0.0000021013    -0.0001687050
    2      Br      0.4183990953     0.0000003683    -0.0000328652
    3      H      -1.8544851053    -0.8858803042    -0.5221085353
    4      H      -1.8516115754    -0.0100947944     1.0289187880
    5      H      -1.8544902222     0.8959496008    -0.5046477408
 ----------------------------------------------------------------
 Molecular Point Group                 C1    NOp =  1
 Largest Abelian Subgroup              C1    NOp =  1
 Nuclear Repulsion Energy =    89.4754720701 hartrees
 There are       22 alpha and       22 beta electrons
 Requested basis set is 6-311++G(d,p)
 There are 40 shells and 91 basis functions

 Total QAlloc Memory Limit   2000 MB
 Mega-Array Size       188 MB
 MEM_STATIC part       192 MB

finished with qalloc call

                       Distance Matrix (Angstroms)
             C (  1)   Br(  2)   H (  3)   H (  4)
   Br(  2)  1.932296
   H (  3)  1.083148  2.494664
   H (  4)  1.083132  2.492347  1.781206
   H (  5)  1.083155  2.494672  1.781915  1.781222

 Job number = 2, Threshold = 1.00E-08
Integral type ranges set in mkLRange.C for JobNum: 2  <1-21|1-21>
Symmetry turned off temporarily
 Using the largest function pair in Schwarz integrals
Total number of integrals generated =           59669
Symmetry turned back on
 A cutoff of  1.0D-08 yielded    793 shell pairs
 There are      4243 function pairs (      4637 Cartesian)
 Job number = 11, Threshold = 1.00E-08
Integral type ranges set in mkLRange.C for JobNum: 11  <1-21|22-22>
Total number of integrals generated =           22945
 Smallest overlap matrix eigenvalue = 6.57E-04
 Multipole matrices computed through 2nd order

 Scale SEOQF with 1.000000e-01/1.000000e-01/1.000000e-01

 Standard Electronic Orientation quadrupole field applied
 Nucleus-field energy     =     0.0000000010 hartrees
 ENuRep (before)= 89.4754720701
 ENucField = 0.0000000010
 ENuRep (after) = 89.4754720711
 Guess from superposition of atomic densities
 Warning:  Energy on first SCF cycle will be non-variational
 SAD guess density has 44.000000 electrons

 ==================================================
    GEN_SCFMAN: A general SCF calculation manager  
                                                   
    Authors:                                       
        -- Eric Jon Sundstrom 2008-2014            
        -- Paul Horn 2010-2015                     
        -- Yuezhi Mao 2012-                        
        -- Dmitri Zuev 2014                        
        -- Alec White 2015-                        
        -- David Stuck 2015                        
        -- Shaama M.S. 2015                        
        -- Shane Yost 2015-                         
        -- Joonho Lee 2016-                        
        -- David Small 2016-                       
        -- Daniel Levine 2016-                     
        -- Susi Lehtola 2017-                      
        -- Hugh Burton 2017-                       
 ==================================================
 Hartree-Fock
Finding J and K together
 Job number = 22, Threshold = 1.00E-08
Integral type ranges set in mkLRange.C for JobNum: 22  <1-21|1-21>
 MakeJK  time:  CPU       2.27 s  wall       2.43 s
 HF Exchange:              -95.88463342025838
 One-Electron:             -3812.31173692966331
 Total Coulomb:            1206.51793422705919
 Nuclear repulsion:         89.47547207113016
 A restricted SCF calculation will be
 performed using DIIS
 SCF converges when DIIS error is below 1.0e-05
 ---------------------------------------
  Cycle       Energy         DIIS error
 ---------------------------------------
Finding J and K together
 Job number = 22, Threshold = 1.00E-08
Integral type ranges set in mkLRange.C for JobNum: 22  <1-21|1-21>
 MakeJK  time:  CPU       3.38 s  wall       3.79 s
 HF Exchange:              -95.82762552494260
 One-Electron:             -3813.83239520821689
 Total Coulomb:            1208.21008663457110
 Nuclear repulsion:         89.47547207113016
    1   -2612.2029640517      5.18e-02  
Finding J and K together
 Job number = 22, Threshold = 1.00E-08
Integral type ranges set in mkLRange.C for JobNum: 22  <1-21|1-21>
 MakeJK  time:  CPU       3.39 s  wall       3.59 s
 HF Exchange:              -95.89894632462789
 One-Electron:             -3813.93987554697924
 Total Coulomb:            1208.37153516771127
 Nuclear repulsion:         89.47547207113016
    2   -2611.9744620275      3.83e-03  
Finding J and K together
 Job number = 22, Threshold = 1.00E-08
Integral type ranges set in mkLRange.C for JobNum: 22  <1-21|1-21>
 MakeJK  time:  CPU       3.36 s  wall       3.81 s
 HF Exchange:              -95.89289235044143
 One-Electron:             -3814.02017688224896
 Total Coulomb:            1208.44281672732427
 Nuclear repulsion:         89.47547207113016
    3   -2611.9918146328      1.69e-03  
Finding J and K together
 Job number = 22, Threshold = 1.00E-08
Integral type ranges set in mkLRange.C for JobNum: 22  <1-21|1-21>
 MakeJK  time:  CPU       3.42 s  wall       3.88 s
 HF Exchange:              -95.89430383409506
 One-Electron:             -3813.93274037857827
 Total Coulomb:            1208.35646777423858
 Nuclear repulsion:         89.47547207113016
    4   -2611.9947804342      4.62e-04  
Finding J and K together
 Job number = 22, Threshold = 1.00E-08
Integral type ranges set in mkLRange.C for JobNum: 22  <1-21|1-21>
 MakeJK  time:  CPU       3.38 s  wall       3.77 s
 HF Exchange:              -95.89792348339411
 One-Electron:             -3813.98159520634727
 Total Coulomb:            1208.40892807263231
 Nuclear repulsion:         89.47547207113016
    5   -2611.9951043673      1.18e-04  
Finding J and K together
 Job number = 22, Threshold = 1.00E-08
Integral type ranges set in mkLRange.C for JobNum: 22  <1-21|1-21>
 MakeJK  time:  CPU       3.38 s  wall       3.42 s
 HF Exchange:              -95.89718793383901
 One-Electron:             -3813.96159482767553
 Total Coulomb:            1208.38818968232090
 Nuclear repulsion:         89.47547207113016
    6   -2611.9951185460      3.66e-05  
    7   -2611.9951210081      8.89e-06  Convergence criterion met
 ---------------------------------------
 SCF time:   CPU 22.78s  wall 25.00s 
 Total energy in the final basis set =    -2611.9951210081
 HF Exchange:              -95.89718793383901
 One-Electron:             -3813.96159482767553
 Total Coulomb:            1208.38818968232090
 Nuclear repulsion:         89.47547207113016
Wall  1 = 25
Clock 1 = 22.81236267089844
 ==================================================
                  Done GEN_SCFMAN                  
 ==================================================

Symmetry turned off temporarily

 --------------------------------------------------------------

                    Orbital Energies (a.u.)
 --------------------------------------------------------------

 Alpha MOs
 -- Occupied --
******* -65.148 -58.509 -58.507 -58.507 -11.290  -9.828  -7.442
 -7.434  -7.434  -3.181  -3.178  -3.178  -3.168  -3.168  -1.065
 -0.899  -0.614  -0.614  -0.510  -0.402  -0.402
 -- Virtual --
  0.038   0.071   0.071   0.085   0.128   0.131   0.131   0.158
  0.158   0.162   0.195   0.223   0.281   0.281   0.373   0.520
  0.520   0.525   0.588   0.588   0.654   0.790   0.790   0.815
  0.823   0.823   0.859   0.859   0.900   1.009   1.176   1.340
  1.341   1.681   1.784   1.784   1.922   1.964   1.964   2.219
  2.320   2.320   2.465   2.479   2.479   2.776   2.791   2.791
  2.878   2.879   3.175   3.453   4.108   4.109   4.569   4.569
  4.670   4.671   4.935   7.197   8.242   8.242   8.329  25.041
 49.466 293.925 293.925 294.0421028.397
 --------------------------------------------------------------

          Ground-State Mulliken Net Atomic Charges

     Atom                 Charge (a.u.)
  ----------------------------------------
      1 C                    -0.326322
      2 Br                   -0.121754
      3 H                     0.149329
      4 H                     0.149419
      5 H                     0.149328
  ----------------------------------------
  Sum of atomic charges =     0.000000

 -----------------------------------------------------------------
                    Cartesian Multipole Moments
 -----------------------------------------------------------------
    Charge (ESU x 10^10)
                 0.0000
    Dipole Moment (Debye)
         X      -2.2262      Y      -0.0000      Z       0.0012
       Tot       2.2262
    Quadrupole Moments (Debye-Ang)
        XX     -22.1279     XY      -0.0000     YY     -26.1402
        XZ       0.0026     YZ       0.0000     ZZ     -26.1432
    Octopole Moments (Debye-Ang^2)
       XXX       9.8796    XXY       0.0000    XYY       1.8284
       YYY       0.0244    XXZ      -0.0062    XYZ      -0.0000
       YYZ      -0.8294    XZZ       1.8369    YZZ      -0.0244
       ZZZ       0.8337
    Hexadecapole Moments (Debye-Ang^3)
      XXXX    -153.9388   XXXY      -0.0002   XXYY     -31.3647
      XYYY      -0.0457   YYYY     -37.6896   XXXZ       0.0286
      XXYZ       0.0002   XYYZ       1.5545   YYYZ       0.0001
      XXZZ     -31.3894   XYZZ       0.0457   YYZZ     -12.5652
      XZZZ      -1.5545   YZZZ      -0.0001   ZZZZ     -37.6863
 -----------------------------------------------------------------
 Mayer SCF Bond Order, atomic valence on the diagonal:

            1           2           3           4           5
    1   3.7654199   0.8329481   0.9774495   0.9775713   0.9774510
    2   0.8329481   0.8051669  -0.0091931  -0.0093957  -0.0091924
    3   0.9774495  -0.0091931   0.9256642  -0.0213177  -0.0212744
    4   0.9775713  -0.0093957  -0.0213177   0.9255407  -0.0213171
    5   0.9774510  -0.0091924  -0.0212744  -0.0213171   0.9256671


 JobOver = TRUE
Archival summary:
1\1\qciep03\SP\HF\BasisUnspecified\r113\jcartus\ThuFeb111:58:492018ThuFeb111:58:492018\0\\#,HF,BasisUnspecified,\\0,1\Br\C,1,1.9323\H,2,1.08313,1,108.163\H,2,1.08315,1,108.329,3,-119.942,0\H,2,1.08316,1,108.329,3,119.943,0\\HF=-2611.99512\\@

 Total job time:  25.43s(wall), 23.08s(cpu) 
 Thu Feb  1 11:58:49 2018

        *************************************************************
        *                                                           *
        *  Thank you very much for using Q-Chem.  Have a nice day.  *
        *                                                           *
        *************************************************************


*** MISSION COMPLETED -- STARFLEET OUT ***

0 sent ACK to 0 
now end server 0 ... 
