Process 0 of 1 is on qciep03 - thread support 0
initial socket setup ...start
initial socket setup ...done 
now start server 0 ... 
qciep03.tugraz.at 127.0.1
Q-Chem Developer Version! Running on 127.0.1.*
                  Welcome to Q-Chem
     A Quantum Leap Into The Future Of Chemistry


 Q-Chem 5.0, Q-Chem, Inc., Pleasanton, CA (2017)

 Yihan Shao,  Zhengting Gan,  E. Epifanovsky,  A. T. B. Gilbert,  M. Wormit,  
 J. Kussmann,  A. W. Lange,  A. Behn,  Jia Deng,  Xintian Feng,  D. Ghosh,  
 M. Goldey,  P. R. Horn,  L. D. Jacobson,  I. Kaliman,  T. Kus,  A. Landau,  
 Jie Liu,  E. I. Proynov,  R. M. Richard,  R. P. Steele,  E. J. Sundstrom,  
 H. L. Woodcock III,  P. M. Zimmerman,  D. Zuev,  B. Albrecht,  E. Alguire,  
 S. A. Baeppler,  D. Barton,  Z. Benda,  Y. A. Bernard,  E. J. Berquist,  
 K. B. Bravaya,  H. Burton,  D. Casanova,  Chun-Min Chang,  Yunqing Chen,  
 A. Chien,  K. D. Closser,  M. P. Coons,  S. Dasgupta,  A. L. Dempwolff,  
 M. Diedenhofen,  Hainam Do,  R. G. Edgar,  Po-Tung Fang,  S. Fatehi,  
 Qingguo Feng,  J. Fosso-Tande,  Qinghui Ge,  A. Ghysels,  G. Gidofalvi,  
 J. Gomes,  J. Gonthier,  A. Gunina,  M. W. D. Hanson-Heine,  
 P. H. P. Harbach,  A. W. Hauser,  J. E. Herr,  E. G. Hohenstein,  
 Z. C. Holden,  Kerwin Hui,  T.-C. Jagau,  Hyunjun Ji,  B. Kaduk,  
 K. Khistyaev,  Jaehoon Kim,  P. Klunzinger,  K. Koh,  D. Kosenkov,  
 L. Koulias,  T. Kowalczyk,  C. M. Krauter,  A. Kunitsa,  Ka Un Lao,  
 A. Laurent,  K. V. Lawler,  Joonho Lee,  D. Lefrancois,  S. Lehtola,  
 D. S. Levine,  Yi-Pei Li,  You-Sheng Lin,  Fenglai Liu,  E. Livshits,  
 A. Luenser,  P. Manohar,  E. Mansoor,  S. F. Manzer,  Shan-Ping Mao,  
 Yuezhi Mao,  N. Mardirossian,  A. V. Marenich,  T. Markovich,  
 L. A. Martinez-Martinez,  S. A. Maurer,  N. J. Mayhall,  S. C. McKenzie,  
 J.-M. Mewes,  A. F. Morrison,  J. W. Mullinax,  K. Nanda,  
 T. S. Nguyen-Beck,  R. Olivares-Amaya,  J. A. Parkhill,  T. M. Perrine,  
 F. Plasser,  S. Prager,  A. Prociuk,  E. Ramos,  D. R. Rehn,  F. Rob,  
 M. Schneider,  N. Sergueev,  S. M. Sharada,  S. Sharma,  D. W. Small,  
 T. Stauch,  T. Stein,  Yu-Chuan Su,  A. J. W. Thom,  A. Tkatchenko,  
 T. Tsuchimochi,  L. Vogt,  O. Vydrov,  M. A. Watson,  J. Wenzel,  
 M. de Wergifosse,  T. A. Wesolowski,  A. White,  J. Witte,  A. Yamada,  
 Jun Yang,  K. Yao,  S. Yeganeh,  S. R. Yost,  Zhi-Qiang You,  A. Zech,  
 Igor Ying Zhang,  Xing Zhang,  Yan Zhao,  Ying Zhu,  B. R. Brooks,  
 G. K. L. Chan,  C. J. Cramer,  M. S. Gordon,  W. J. Hehre,  A. Klamt,  
 M. W. Schmidt,  C. D. Sherrill,  D. G. Truhlar,  A. Aspuru-Guzik,  R. Baer,  
 A. T. Bell,  N. A. Besley,  Jeng-Da Chai,  R. A. DiStasio Jr.,  A. Dreuw,  
 B. D. Dunietz,  T. R. Furlani,  Chao-Ping Hsu,  Yousung Jung,  Jing Kong,  
 D. S. Lambrecht,  WanZhen Liang,  C. Ochsenfeld,  V. A. Rassolov,  
 L. V. Slipchenko,  J. E. Subotnik,  T. Van Voorhis,  J. M. Herbert,  
 A. I. Krylov,  P. M. W. Gill,  M. Head-Gordon

 Contributors to earlier versions of Q-Chem not listed above: 
 R. D. Adamson,  B. Austin,  J. Baker,  G. J. O. Beran,  K. Brandhorst,  
 S. T. Brown,  E. F. C. Byrd,  A. K. Chakraborty,  C.-L. Cheng,  
 Siu Hung Chien,  D. M. Chipman,  D. L. Crittenden,  H. Dachsel,  
 R. J. Doerksen,  A. D. Dutoi,  L. Fusti-Molnar,  W. A. Goddard III,  
 A. Golubeva-Zadorozhnaya,  S. R. Gwaltney,  G. Hawkins,  A. Heyden,  
 S. Hirata,  G. Kedziora,  F. J. Keil,  C. Kelley,  Jihan Kim,  R. A. King,  
 R. Z. Khaliullin,  P. P. Korambath,  W. Kurlancheek,  A. M. Lee,  M. S. Lee,  
 S. V. Levchenko,  Ching Yeh Lin,  D. Liotard,  R. C. Lochan,  I. Lotan,  
 P. E. Maslen,  N. Nair,  D. P. O'Neill,  D. Neuhauser,  E. Neuscamman,  
 C. M. Oana,  R. Olson,  B. Peters,  R. Peverati,  P. A. Pieniazek,  
 Y. M. Rhee,  J. Ritchie,  M. A. Rohrdanz,  E. Rosta,  N. J. Russ,  
 H. F. Schaefer III,  N. E. Schultz,  N. Shenvi,  A. C. Simmonett,  A. Sodt,  
 D. Stuck,  K. S. Thanthiriwatte,  V. Vanovschi,  Tao Wang,  A. Warshel,  
 C. F. Williams,  Q. Wu,  X. Xu,  W. Zhang

 Please cite Q-Chem as follows:
 Y. Shao et al., Mol. Phys. 113, 184-215 (2015)
 DOI: 10.1080/00268976.2014.952696

 Q-Chem 5.0.2 for Intel X86 EM64T Linux

 Parts of Q-Chem use Armadillo 5.200.1 (Boston Tea Smuggler).
 http://arma.sourceforge.net/

 Q-Chem begins on Thu Feb  1 12:08:43 2018  


Host: 0

     Scratch files written to /home/jcartus/scratch/16_F3chloromethane-formaldehyde_mono1.dir//
 Using version located at /usr/local/qchem/bin/qchem

 Parallel job on  1  processors

Total Memory Limit in MB = 2000
Mega-Array Size in MB = 192

Checking the input file for inconsistencies... 	...done.
Finally everything over in PARseQInput

--------------------------------------------------------------
User input:
--------------------------------------------------------------
$rem
SCF_PRINT                     1
BASIS                         6-311++g**
SCF_SAVE_MATRICES             1
SCF_CONVERGENCE               5
SCF_FINAL_PRINT               1
METHOD                        hf
JOBTYPE                       sp
$end

$molecule
0 1
C    0.228087368    -0.006027308    -0.103512024
Cl    1.808884452    0.632806687    0.291464994
F    0.331959317    -1.250132504    -0.555496397
F    -0.551167778    -0.01333945    0.969446208
F    -0.350921815    0.733335757    -1.03965153
$end


--------------------------------------------------------------
 ----------------------------------------------------------------
             Standard Nuclear Orientation (Angstroms)
    I     Atom           X                Y                Z
 ----------------------------------------------------------------
    1      C       0.3446635701     0.0010197348     0.0001121380
    2      Cl     -1.4054891744     0.0003148484    -0.0000007192
    3      F       0.8074715291    -1.2403027996    -0.0882289779
    4      F       0.8088219431     0.6959109872    -1.0295550752
    5      F       0.8087436994     0.5431172755     1.1177106529
 ----------------------------------------------------------------
 Molecular Point Group                 C1    NOp =  1
 Largest Abelian Subgroup              C1    NOp =  1
 Nuclear Repulsion Energy =   250.8613020612 hartrees
 There are       25 alpha and       25 beta electrons
 Requested basis set is 6-311++G(d,p)
 There are 37 shells and 118 basis functions

 Total QAlloc Memory Limit   2000 MB
 Mega-Array Size       188 MB
 MEM_STATIC part       192 MB

finished with qalloc call

                       Distance Matrix (Angstroms)
             C (  1)   Cl(  2)   F (  3)   F (  4)
   Cl(  2)  1.750153
   F (  3)  1.327734  2.538525
   F (  4)  1.326096  2.539096  2.152910
   F (  5)  1.325996  2.539043  2.152877  2.152695

 Job number = 2, Threshold = 1.00E-08
Integral type ranges set in mkLRange.C for JobNum: 2  <1-21|1-21>
Symmetry turned off temporarily
 Using the largest function pair in Schwarz integrals
Total number of integrals generated =          128963
Symmetry turned back on
 A cutoff of  1.0D-08 yielded    615 shell pairs
 There are      6701 function pairs (      7295 Cartesian)
 Job number = 11, Threshold = 1.00E-08
Integral type ranges set in mkLRange.C for JobNum: 11  <1-21|22-22>
Total number of integrals generated =           36470
 Smallest overlap matrix eigenvalue = 1.06E-03
 Multipole matrices computed through 2nd order

 Scale SEOQF with 1.000000e-01/1.000000e-01/1.000000e-01

 Standard Electronic Orientation quadrupole field applied
 Nucleus-field energy     =     0.0000000011 hartrees
 ENuRep (before)= 250.8613020612
 ENucField = 0.0000000011
 ENuRep (after) = 250.8613020623
 Guess from superposition of atomic densities
 Warning:  Energy on first SCF cycle will be non-variational
 SAD guess density has 50.000000 electrons

 ==================================================
    GEN_SCFMAN: A general SCF calculation manager  
                                                   
    Authors:                                       
        -- Eric Jon Sundstrom 2008-2014            
        -- Paul Horn 2010-2015                     
        -- Yuezhi Mao 2012-                        
        -- Dmitri Zuev 2014                        
        -- Alec White 2015-                        
        -- David Stuck 2015                        
        -- Shaama M.S. 2015                        
        -- Shane Yost 2015-                         
        -- Joonho Lee 2016-                        
        -- David Small 2016-                       
        -- Daniel Levine 2016-                     
        -- Susi Lehtola 2017-                      
        -- Hugh Burton 2017-                       
 ==================================================
 Hartree-Fock
Finding J and K together
 Job number = 22, Threshold = 1.00E-08
Integral type ranges set in mkLRange.C for JobNum: 22  <1-21|1-21>
 MakeJK  time:  CPU       1.81 s  wall       2.13 s
 HF Exchange:              -62.90895495807454
 One-Electron:             -1603.40572415628958
 Total Coulomb:            618.80942898456271
 Nuclear repulsion:        250.86130206229890
 A restricted SCF calculation will be
 performed using DIIS
 SCF converges when DIIS error is below 1.0e-05
 ---------------------------------------
  Cycle       Energy         DIIS error
 ---------------------------------------
Finding J and K together
 Job number = 22, Threshold = 1.00E-08
Integral type ranges set in mkLRange.C for JobNum: 22  <1-21|1-21>
 MakeJK  time:  CPU       3.80 s  wall       4.14 s
 HF Exchange:              -63.11324717196641
 One-Electron:             -1600.05959093075739
 Total Coulomb:            616.70359856643870
 Nuclear repulsion:        250.86130206229890
    1    -796.6439480675      5.44e-02  
Finding J and K together
 Job number = 22, Threshold = 1.00E-08
Integral type ranges set in mkLRange.C for JobNum: 22  <1-21|1-21>
 MakeJK  time:  CPU       3.83 s  wall       3.96 s
 HF Exchange:              -62.81312239332066
 One-Electron:             -1602.48405361735581
 Total Coulomb:            618.70934248814297
 Nuclear repulsion:        250.86130206229890
    2    -795.6079374740      1.10e-02  
Finding J and K together
 Job number = 22, Threshold = 1.00E-08
Integral type ranges set in mkLRange.C for JobNum: 22  <1-21|1-21>
 MakeJK  time:  CPU       3.82 s  wall       3.82 s
 HF Exchange:              -63.01369620745081
 One-Electron:             -1602.32163741478871
 Total Coulomb:            618.68815961303312
 Nuclear repulsion:        250.86130206229890
    3    -795.7265314602      7.23e-03  
Finding J and K together
 Job number = 22, Threshold = 1.00E-08
Integral type ranges set in mkLRange.C for JobNum: 22  <1-21|1-21>
 MakeJK  time:  CPU       3.82 s  wall       3.83 s
 HF Exchange:              -62.99263545505594
 One-Electron:             -1602.10093568410548
 Total Coulomb:            618.44526079080572
 Nuclear repulsion:        250.86130206229890
    4    -795.7858719469      6.64e-04  
Finding J and K together
 Job number = 22, Threshold = 1.00E-08
Integral type ranges set in mkLRange.C for JobNum: 22  <1-21|1-21>
 MakeJK  time:  CPU       3.83 s  wall       3.84 s
 HF Exchange:              -63.00642290645052
 One-Electron:             -1602.19533567991130
 Total Coulomb:            618.55328823975219
 Nuclear repulsion:        250.86130206229890
    5    -795.7870082861      2.57e-04  
Finding J and K together
 Job number = 22, Threshold = 1.00E-08
Integral type ranges set in mkLRange.C for JobNum: 22  <1-21|1-21>
 MakeJK  time:  CPU       3.82 s  wall       3.83 s
 HF Exchange:              -63.00643935748092
 One-Electron:             -1602.19401097188916
 Total Coulomb:            618.55196885050827
 Nuclear repulsion:        250.86130206229890
    6    -795.7871682843      5.68e-05  
Finding J and K together
 Job number = 22, Threshold = 1.00E-08
Integral type ranges set in mkLRange.C for JobNum: 22  <1-21|1-21>
 MakeJK  time:  CPU       3.81 s  wall       3.81 s
 HF Exchange:              -63.00656863919242
 One-Electron:             -1602.19328970415859
 Total Coulomb:            618.55137613224304
 Nuclear repulsion:        250.86130206229890
    7    -795.7871794166      1.38e-05  
    8    -795.7871801488      3.40e-06  Convergence criterion met
 ---------------------------------------
 SCF time:   CPU 28.96s  wall 30.00s 
 Total energy in the final basis set =     -795.7871801488
 HF Exchange:              -63.00656863919242
 One-Electron:             -1602.19328970415859
 Total Coulomb:            618.55137613224304
 Nuclear repulsion:        250.86130206229890
Wall  1 = 30
Clock 1 = 29.02560806274414
 ==================================================
                  Done GEN_SCFMAN                  
 ==================================================

Symmetry turned off temporarily

 --------------------------------------------------------------

                    Orbital Energies (a.u.)
 --------------------------------------------------------------

 Alpha MOs
 -- Occupied --
******* -26.377 -26.377 -26.376 -11.592 -10.615  -8.084  -8.080
 -8.080  -1.779  -1.678  -1.677  -1.193  -0.983  -0.869  -0.869
 -0.831  -0.747  -0.746  -0.700  -0.700  -0.682  -0.606  -0.512
 -0.512
 -- Virtual --
  0.072   0.096   0.110   0.110   0.120   0.141   0.141   0.188
  0.255   0.292   0.292   0.352   0.353   0.363   0.373   0.373
  0.387   0.412   0.430   0.430   0.443   0.502   0.506   0.506
  0.562   0.599   0.599   0.746   0.746   0.802   1.111   1.114
  1.114   1.131   1.173   1.174   1.388   1.451   1.452   1.509
  1.509   1.586   1.658   1.677   1.694   1.695   1.702   1.702
  2.064   2.064   2.065   2.167   2.167   2.321   2.595   2.595
  2.830   3.256   3.259   3.294   4.107   4.139   4.140   4.142
  4.168   4.168   4.180   4.288   4.289   4.554   4.626   4.626
  4.809   5.350   5.351   6.849   6.849   6.927   6.929   6.929
  6.940   7.007   7.358   7.361  10.378  24.516  26.689  26.690
 27.259  68.682  68.682  68.737 219.229
 --------------------------------------------------------------

          Ground-State Mulliken Net Atomic Charges

     Atom                 Charge (a.u.)
  ----------------------------------------
      1 C                     0.162972
      2 Cl                    0.202290
      3 F                    -0.122924
      4 F                    -0.121216
      5 F                    -0.121122
  ----------------------------------------
  Sum of atomic charges =     0.000000

 -----------------------------------------------------------------
                    Cartesian Multipole Moments
 -----------------------------------------------------------------
    Charge (ESU x 10^10)
                 0.0000
    Dipole Moment (Debye)
         X      -0.7168      Y       0.0115      Z       0.0013
       Tot       0.7169
    Quadrupole Moments (Debye-Ang)
        XX     -32.0021     XY       0.0100     YY     -34.1147
        XZ       0.0012     YZ      -0.0005     ZZ     -34.1040
    Octopole Moments (Debye-Ang^2)
       XXX       6.4861    XXY      -0.0007    XYY       3.0961
       YYY       1.3315    XXZ       0.0003    XYZ      -0.0002
       YYZ       0.2860    XZZ       3.1031    YZZ      -1.3145
       ZZZ      -0.2834
    Hexadecapole Moments (Debye-Ang^3)
      XXXX    -215.7224   XXXY       0.0284   XXYY     -56.8823
      XYYY       0.7776   YYYY     -95.9566   XXXZ       0.0031
      XXYZ      -0.0005   XYYZ       0.1639   YYYZ      -0.0010
      XXZZ     -56.8676   XYZZ      -0.7464   YYZZ     -31.9756
      XZZZ      -0.1611   YZZZ      -0.0013   ZZZZ     -95.8935
 -----------------------------------------------------------------
 Mayer SCF Bond Order, atomic valence on the diagonal:

            1           2           3           4           5
    1   4.5479792   1.4826869   1.0207907   1.0222113   1.0222902
    2   1.4826869   1.1120727  -0.1235100  -0.1235446  -0.1235595
    3   1.0207907  -0.1235100   0.9390403   0.0208756   0.0208840
    4   1.0222113  -0.1235446   0.0208756   0.9404458   0.0209035
    5   1.0222902  -0.1235595   0.0208840   0.0209035   0.9405182


 JobOver = TRUE
Archival summary:
1\1\qciep03\SP\HF\BasisUnspecified\l131\jcartus\ThuFeb112:09:132018ThuFeb112:09:132018\0\\#,HF,BasisUnspecified,\\0,1\Cl\C,1,1.75015\F,2,1.326,1,110.5\F,2,1.3261,1,110.498,3,-120.125,0\F,2,1.32773,1,110.377,3,119.94,0\\HF=-795.78718\\@

 Total job time:  30.35s(wall), 29.34s(cpu) 
 Thu Feb  1 12:09:13 2018

        *************************************************************
        *                                                           *
        *  Thank you very much for using Q-Chem.  Have a nice day.  *
        *                                                           *
        *************************************************************


*** MISSION COMPLETED -- STARFLEET OUT ***

0 sent ACK to 0 
now end server 0 ... 
