Process 0 of 1 is on qciep03 - thread support 0
initial socket setup ...start
initial socket setup ...done 
now start server 0 ... 
qciep03.tugraz.at 127.0.1
Q-Chem Developer Version! Running on 127.0.1.*
                  Welcome to Q-Chem
     A Quantum Leap Into The Future Of Chemistry


 Q-Chem 5.0, Q-Chem, Inc., Pleasanton, CA (2017)

 Yihan Shao,  Zhengting Gan,  E. Epifanovsky,  A. T. B. Gilbert,  M. Wormit,  
 J. Kussmann,  A. W. Lange,  A. Behn,  Jia Deng,  Xintian Feng,  D. Ghosh,  
 M. Goldey,  P. R. Horn,  L. D. Jacobson,  I. Kaliman,  T. Kus,  A. Landau,  
 Jie Liu,  E. I. Proynov,  R. M. Richard,  R. P. Steele,  E. J. Sundstrom,  
 H. L. Woodcock III,  P. M. Zimmerman,  D. Zuev,  B. Albrecht,  E. Alguire,  
 S. A. Baeppler,  D. Barton,  Z. Benda,  Y. A. Bernard,  E. J. Berquist,  
 K. B. Bravaya,  H. Burton,  D. Casanova,  Chun-Min Chang,  Yunqing Chen,  
 A. Chien,  K. D. Closser,  M. P. Coons,  S. Dasgupta,  A. L. Dempwolff,  
 M. Diedenhofen,  Hainam Do,  R. G. Edgar,  Po-Tung Fang,  S. Fatehi,  
 Qingguo Feng,  J. Fosso-Tande,  Qinghui Ge,  A. Ghysels,  G. Gidofalvi,  
 J. Gomes,  J. Gonthier,  A. Gunina,  M. W. D. Hanson-Heine,  
 P. H. P. Harbach,  A. W. Hauser,  J. E. Herr,  E. G. Hohenstein,  
 Z. C. Holden,  Kerwin Hui,  T.-C. Jagau,  Hyunjun Ji,  B. Kaduk,  
 K. Khistyaev,  Jaehoon Kim,  P. Klunzinger,  K. Koh,  D. Kosenkov,  
 L. Koulias,  T. Kowalczyk,  C. M. Krauter,  A. Kunitsa,  Ka Un Lao,  
 A. Laurent,  K. V. Lawler,  Joonho Lee,  D. Lefrancois,  S. Lehtola,  
 D. S. Levine,  Yi-Pei Li,  You-Sheng Lin,  Fenglai Liu,  E. Livshits,  
 A. Luenser,  P. Manohar,  E. Mansoor,  S. F. Manzer,  Shan-Ping Mao,  
 Yuezhi Mao,  N. Mardirossian,  A. V. Marenich,  T. Markovich,  
 L. A. Martinez-Martinez,  S. A. Maurer,  N. J. Mayhall,  S. C. McKenzie,  
 J.-M. Mewes,  A. F. Morrison,  J. W. Mullinax,  K. Nanda,  
 T. S. Nguyen-Beck,  R. Olivares-Amaya,  J. A. Parkhill,  T. M. Perrine,  
 F. Plasser,  S. Prager,  A. Prociuk,  E. Ramos,  D. R. Rehn,  F. Rob,  
 M. Schneider,  N. Sergueev,  S. M. Sharada,  S. Sharma,  D. W. Small,  
 T. Stauch,  T. Stein,  Yu-Chuan Su,  A. J. W. Thom,  A. Tkatchenko,  
 T. Tsuchimochi,  L. Vogt,  O. Vydrov,  M. A. Watson,  J. Wenzel,  
 M. de Wergifosse,  T. A. Wesolowski,  A. White,  J. Witte,  A. Yamada,  
 Jun Yang,  K. Yao,  S. Yeganeh,  S. R. Yost,  Zhi-Qiang You,  A. Zech,  
 Igor Ying Zhang,  Xing Zhang,  Yan Zhao,  Ying Zhu,  B. R. Brooks,  
 G. K. L. Chan,  C. J. Cramer,  M. S. Gordon,  W. J. Hehre,  A. Klamt,  
 M. W. Schmidt,  C. D. Sherrill,  D. G. Truhlar,  A. Aspuru-Guzik,  R. Baer,  
 A. T. Bell,  N. A. Besley,  Jeng-Da Chai,  R. A. DiStasio Jr.,  A. Dreuw,  
 B. D. Dunietz,  T. R. Furlani,  Chao-Ping Hsu,  Yousung Jung,  Jing Kong,  
 D. S. Lambrecht,  WanZhen Liang,  C. Ochsenfeld,  V. A. Rassolov,  
 L. V. Slipchenko,  J. E. Subotnik,  T. Van Voorhis,  J. M. Herbert,  
 A. I. Krylov,  P. M. W. Gill,  M. Head-Gordon

 Contributors to earlier versions of Q-Chem not listed above: 
 R. D. Adamson,  B. Austin,  J. Baker,  G. J. O. Beran,  K. Brandhorst,  
 S. T. Brown,  E. F. C. Byrd,  A. K. Chakraborty,  C.-L. Cheng,  
 Siu Hung Chien,  D. M. Chipman,  D. L. Crittenden,  H. Dachsel,  
 R. J. Doerksen,  A. D. Dutoi,  L. Fusti-Molnar,  W. A. Goddard III,  
 A. Golubeva-Zadorozhnaya,  S. R. Gwaltney,  G. Hawkins,  A. Heyden,  
 S. Hirata,  G. Kedziora,  F. J. Keil,  C. Kelley,  Jihan Kim,  R. A. King,  
 R. Z. Khaliullin,  P. P. Korambath,  W. Kurlancheek,  A. M. Lee,  M. S. Lee,  
 S. V. Levchenko,  Ching Yeh Lin,  D. Liotard,  R. C. Lochan,  I. Lotan,  
 P. E. Maslen,  N. Nair,  D. P. O'Neill,  D. Neuhauser,  E. Neuscamman,  
 C. M. Oana,  R. Olson,  B. Peters,  R. Peverati,  P. A. Pieniazek,  
 Y. M. Rhee,  J. Ritchie,  M. A. Rohrdanz,  E. Rosta,  N. J. Russ,  
 H. F. Schaefer III,  N. E. Schultz,  N. Shenvi,  A. C. Simmonett,  A. Sodt,  
 D. Stuck,  K. S. Thanthiriwatte,  V. Vanovschi,  Tao Wang,  A. Warshel,  
 C. F. Williams,  Q. Wu,  X. Xu,  W. Zhang

 Please cite Q-Chem as follows:
 Y. Shao et al., Mol. Phys. 113, 184-215 (2015)
 DOI: 10.1080/00268976.2014.952696

 Q-Chem 5.0.2 for Intel X86 EM64T Linux

 Parts of Q-Chem use Armadillo 5.200.1 (Boston Tea Smuggler).
 http://arma.sourceforge.net/

 Q-Chem begins on Thu Feb  1 12:16:23 2018  


Host: 0

     Scratch files written to /home/jcartus/scratch/24_benI-Nm3_mono2.dir//
 Using version located at /usr/local/qchem/bin/qchem

 Parallel job on  1  processors

Total Memory Limit in MB = 2000
Mega-Array Size in MB = 192

Checking the input file for inconsistencies... 	...done.
Finally everything over in PARseQInput

--------------------------------------------------------------
User input:
--------------------------------------------------------------
$rem
SCF_PRINT                     1
BASIS                         6-311++g**
SCF_SAVE_MATRICES             1
SCF_CONVERGENCE               5
SCF_FINAL_PRINT               1
METHOD                        hf
JOBTYPE                       sp
$end

$molecule
0 1
N    -4.582592278    -0.001974697    4.004623405
C    -5.432248278    1.033095303    3.443517405
C    -5.202064278    -1.306090697    3.850638405
C    -4.310611278    0.268567303    5.404935405
H    -5.229215278    0.283653303    6.011064405
H    -3.647037278    -0.497334697    5.803030405
H    -3.817378278    1.234370303    5.501577405
H    -6.408881278    1.087511303    3.948188405
H    -4.940827278    2.000098303    3.537088405
H    -5.600716278    0.834533303    2.386353405
H    -6.166829278    -1.372211697    4.376310405
H    -5.370060278    -1.508608697    2.794164405
H    -4.539891278    -2.074436697    4.246253405
$end


--------------------------------------------------------------
 ----------------------------------------------------------------
             Standard Nuclear Orientation (Angstroms)
    I     Atom           X                Y                Z
 ----------------------------------------------------------------
    1      N      -0.0000088854    -0.0000079244     0.3951519998
    2      C       1.0149731855    -0.9308817452    -0.0646419671
    3      C      -1.3137154542    -0.4134529632    -0.0646454897
    4      C       0.2987728634     1.3443743485    -0.0646371981
    5      H       0.3141961016     1.4138389654    -1.1629950868
    6      H      -0.4521716827     2.0356569011     0.3143439058
    7      H       1.2717617556     1.6525829307     0.3144327013
    8      H       1.0672265162    -0.9791094548    -1.1630087608
    9      H       1.9890857683    -0.6262633376     0.3143794503
   10      H       0.7955139668    -1.9276367080     0.3144638932
   11      H      -1.3814577222    -0.4349951702    -1.1630176770
   12      H      -1.5371119426    -1.4092904954     0.3145314184
   13      H      -2.0671641314     0.2750339994     0.3143540868
 ----------------------------------------------------------------
 Molecular Point Group                 C1    NOp =  1
 Largest Abelian Subgroup              C1    NOp =  1
 Nuclear Repulsion Energy =   139.1432698592 hartrees
 There are       17 alpha and       17 beta electrons
 Requested basis set is 6-311++G(d,p)
 There are 69 shells and 151 basis functions

 Total QAlloc Memory Limit   2000 MB
 Mega-Array Size       188 MB
 MEM_STATIC part       192 MB

finished with qalloc call

                       Distance Matrix (Angstroms)
             N (  1)   C (  2)   C (  3)   C (  4)   H (  5)   H (  6)
   C (  2)  1.451938
   C (  3)  1.451956  2.385482
   C (  4)  1.451909  2.385316  2.385388
   H (  5)  2.127325  2.682384  2.682436  1.100660
   H (  6)  2.086843  3.331140  2.623743  1.088768  1.776656
   H (  7)  2.086857  2.623724  3.331201  1.088758  1.776717  1.765982
   H (  8)  2.127321  1.100666  2.682397  2.682446  2.508636  3.685099
   H (  9)  2.086916  1.088735  3.331283  2.623781  3.024882  3.611863
   H ( 10)  2.086892  1.088763  2.623990  3.331145  3.685107  4.155047
   H ( 11)  2.127324  2.682390  1.100670  2.682493  2.508671  3.024945
   H ( 12)  2.086927  2.624078  1.088749  3.331203  3.685171  3.611753
   H ( 13)  2.086937  3.331282  1.088733  2.623887  3.024949  2.389141
             H (  7)   H (  8)   H (  9)   H ( 10)   H ( 11)   H ( 12)
   H (  8)  3.024975
   H (  9)  2.389078  1.776795
   H ( 10)  3.611756  1.776642  1.765839
   H ( 11)  3.685162  2.508409  3.685085  3.024919
   H ( 12)  4.155098  3.025022  3.612091  2.389524  1.776691
   H ( 13)  3.611934  3.685089  4.155178  3.612019  1.776784  1.765759


 Job number = 2, Threshold = 1.00E-08
Integral type ranges set in mkLRange.C for JobNum: 2  <1-21|1-21>
Symmetry turned off temporarily
 Using the largest function pair in Schwarz integrals
Total number of integrals generated =          139176
Symmetry turned back on
 A cutoff of  1.0D-08 yielded   2322 shell pairs
 There are     11366 function pairs (     12000 Cartesian)
 Job number = 11, Threshold = 1.00E-08
Integral type ranges set in mkLRange.C for JobNum: 11  <1-21|22-22>
Total number of integrals generated =          156000
 Smallest overlap matrix eigenvalue = 1.95E-04
 Multipole matrices computed through 2nd order

 Scale SEOQF with 1.000000e-01/1.000000e-01/1.000000e-01

 Standard Electronic Orientation quadrupole field applied
 Nucleus-field energy     =     0.0000000029 hartrees
 ENuRep (before)= 139.1432698592
 ENucField = 0.0000000029
 ENuRep (after) = 139.1432698621
 Guess from superposition of atomic densities
 Warning:  Energy on first SCF cycle will be non-variational
 SAD guess density has 34.000000 electrons

 ==================================================
    GEN_SCFMAN: A general SCF calculation manager  
                                                   
    Authors:                                       
        -- Eric Jon Sundstrom 2008-2014            
        -- Paul Horn 2010-2015                     
        -- Yuezhi Mao 2012-                        
        -- Dmitri Zuev 2014                        
        -- Alec White 2015-                        
        -- David Stuck 2015                        
        -- Shaama M.S. 2015                        
        -- Shane Yost 2015-                         
        -- Joonho Lee 2016-                        
        -- David Small 2016-                       
        -- Daniel Levine 2016-                     
        -- Susi Lehtola 2017-                      
        -- Hugh Burton 2017-                       
 ==================================================
 Hartree-Fock
Finding J and K together
 Job number = 22, Threshold = 1.00E-08
Integral type ranges set in mkLRange.C for JobNum: 22  <1-21|1-21>
 MakeJK  time:  CPU       3.02 s  wall       3.15 s
 HF Exchange:              -25.65317779652679
 One-Electron:             -505.10485015071191
 Total Coulomb:            217.02394420775326
 Nuclear repulsion:        139.14326986214931
 A restricted SCF calculation will be
 performed using DIIS
 SCF converges when DIIS error is below 1.0e-05
 ---------------------------------------
  Cycle       Energy         DIIS error
 ---------------------------------------
Finding J and K together
 Job number = 22, Threshold = 1.00E-08
Integral type ranges set in mkLRange.C for JobNum: 22  <1-21|1-21>
 MakeJK  time:  CPU      11.45 s  wall      12.10 s
 HF Exchange:              -25.29036742663673
 One-Electron:             -508.71538083283497
 Total Coulomb:            221.58838140591715
 Nuclear repulsion:        139.14326986214931
    1    -174.5908138773      5.08e-02  
Finding J and K together
 Job number = 22, Threshold = 1.00E-08
Integral type ranges set in mkLRange.C for JobNum: 22  <1-21|1-21>
 MakeJK  time:  CPU      11.57 s  wall      12.16 s
 HF Exchange:              -25.38266708896236
 One-Electron:             -508.69138052250571
 Total Coulomb:            221.61631941910676
 Nuclear repulsion:        139.14326986214931
    2    -173.2740969914      3.30e-03  
Finding J and K together
 Job number = 22, Threshold = 1.00E-08
Integral type ranges set in mkLRange.C for JobNum: 22  <1-21|1-21>
 MakeJK  time:  CPU      11.43 s  wall      12.58 s
 HF Exchange:              -25.42334289361698
 One-Electron:             -508.87462066351253
 Total Coulomb:            221.83737017787800
 Nuclear repulsion:        139.14326986214931
    3    -173.3144583302      7.95e-04  
Finding J and K together
 Job number = 22, Threshold = 1.00E-08
Integral type ranges set in mkLRange.C for JobNum: 22  <1-21|1-21>
 MakeJK  time:  CPU      11.10 s  wall      12.23 s
 HF Exchange:              -25.41902166113868
 One-Electron:             -508.77156692733968
 Total Coulomb:            221.72973901368312
 Nuclear repulsion:        139.14326986214931
    4    -173.3173235171      3.03e-04  
Finding J and K together
 Job number = 22, Threshold = 1.00E-08
Integral type ranges set in mkLRange.C for JobNum: 22  <1-21|1-21>
 MakeJK  time:  CPU      11.56 s  wall      12.55 s
 HF Exchange:              -25.42208945771038
 One-Electron:             -508.79870832137743
 Total Coulomb:            221.75992435958602
 Nuclear repulsion:        139.14326986214931
    5    -173.3175797126      7.25e-05  
Finding J and K together
 Job number = 22, Threshold = 1.00E-08
Integral type ranges set in mkLRange.C for JobNum: 22  <1-21|1-21>
 MakeJK  time:  CPU      11.50 s  wall      11.68 s
 HF Exchange:              -25.42185193118466
 One-Electron:             -508.79218142888686
 Total Coulomb:            221.75315767628371
 Nuclear repulsion:        139.14326986214931
    6    -173.3176035574      1.85e-05  
    7    -173.3176058216      5.01e-06  Convergence criterion met
 ---------------------------------------
 SCF time:   CPU 72.39s  wall 77.00s 
 Total energy in the final basis set =     -173.3176058216
 HF Exchange:              -25.42185193118466
 One-Electron:             -508.79218142888686
 Total Coulomb:            221.75315767628371
 Nuclear repulsion:        139.14326986214931
Wall  1 = 77
Clock 1 = 72.51641845703125
 ==================================================
                  Done GEN_SCFMAN                  
 ==================================================

Symmetry turned off temporarily

 --------------------------------------------------------------

                    Orbital Energies (a.u.)
 --------------------------------------------------------------

 Alpha MOs
 -- Occupied --
-15.545 -11.239 -11.239 -11.239  -1.227  -0.951  -0.951  -0.807
 -0.644  -0.630  -0.630  -0.545  -0.545  -0.518  -0.500  -0.500
 -0.355
 -- Virtual --
  0.041   0.057   0.057   0.072   0.084   0.084   0.096   0.096
  0.116   0.119   0.165   0.168   0.168   0.183   0.184   0.184
  0.207   0.207   0.223   0.223   0.240   0.287   0.295   0.295
  0.299   0.338   0.338   0.338   0.374   0.380   0.380   0.407
  0.407   0.424   0.473   0.473   0.506   0.545   0.545   0.620
  0.689   0.689   0.730   0.772   0.772   0.798   0.851   0.860
  0.877   0.877   0.898   0.898   0.947   0.947   0.959   1.036
  1.070   1.070   1.123   1.215   1.215   1.283   1.283   1.417
  1.458   1.589   1.589   1.722   1.722   1.730   1.758   1.783
  1.783   1.839   1.839   1.840   1.903   1.903   1.916   2.006
  2.016   2.016   2.036   2.121   2.121   2.142   2.285   2.285
  2.329   2.381   2.381   2.452   2.469   2.469   2.524   2.768
  2.768   2.781   2.796   2.796   2.867   2.873   2.873   2.887
  2.936   2.936   2.946   2.998   2.998   3.035   3.115   3.121
  3.121   3.241   3.241   3.314   3.443   3.443   3.958   3.958
  4.149   4.180   4.180   4.194   4.224   4.246   4.246   4.735
  5.386   5.386  25.096  25.132  25.132  36.960
 --------------------------------------------------------------

          Ground-State Mulliken Net Atomic Charges

     Atom                 Charge (a.u.)
  ----------------------------------------
      1 N                    -0.073157
      2 C                    -0.327052
      3 C                    -0.327050
      4 C                    -0.327046
      5 H                     0.110363
      6 H                     0.120525
      7 H                     0.120526
      8 H                     0.110356
      9 H                     0.120531
     10 H                     0.120553
     11 H                     0.110351
     12 H                     0.120561
     13 H                     0.120540
  ----------------------------------------
  Sum of atomic charges =     0.000000

 -----------------------------------------------------------------
                    Cartesian Multipole Moments
 -----------------------------------------------------------------
    Charge (ESU x 10^10)
                 0.0000
    Dipole Moment (Debye)
         X      -0.0001      Y      -0.0001      Z      -0.8305
       Tot       0.8305
    Quadrupole Moments (Debye-Ang)
        XX     -26.4405     XY      -0.0001     YY     -26.4424
        XZ       0.0001     YZ       0.0000     ZZ     -30.1087
    Octopole Moments (Debye-Ang^2)
       XXX       0.5968    XXY       0.7760    XYY      -0.5977
       YYY      -0.7770    XXZ       2.3210    XYZ       0.0000
       YYZ       2.3187    XZZ      -0.0003    YZZ      -0.0007
       ZZZ      -1.8928
    Hexadecapole Moments (Debye-Ang^3)
      XXXX    -189.4431   XXXY       0.0003   XXYY     -63.1459
      XYYY      -0.0012   YYYY    -189.4368   XXXZ       0.7236
      XXYZ       0.9403   XYYZ      -0.7242   YYYZ      -0.9418
      XXZZ     -42.9170   XYZZ       0.0003   YYZZ     -42.9135
      XZZZ       0.0004   YZZZ       0.0005   ZZZZ     -62.6867
 -----------------------------------------------------------------
 Mayer SCF Bond Order, atomic valence on the diagonal:

            1           2           3           4           5           6
    1   2.4517962   0.8978857   0.8979283   0.8978705   0.0093820  -0.0450080
    2   0.8978857   3.7146672  -0.0713002  -0.0713220  -0.0081192   0.0011599
    3   0.8979283  -0.0713002   3.7146814  -0.0713300  -0.0081276  -0.0025336
    4   0.8978705  -0.0713220  -0.0713300   3.7146289   0.9592390   1.0095852
    5   0.0093820  -0.0081192  -0.0081276   0.9592390   0.9175512  -0.0278201
    6  -0.0450080   0.0011599  -0.0025336   1.0095852  -0.0278201   0.9261764
    7  -0.0450075  -0.0025359   0.0011609   1.0095875  -0.0278126  -0.0136416
    8   0.0093741   0.9592600  -0.0081225  -0.0081319   0.0065493   0.0011316
    9  -0.0450025   1.0095699   0.0011596  -0.0025265   0.0027223  -0.0003136
   10  -0.0449974   1.0095612  -0.0025320   0.0011577   0.0011318   0.0021866
   11   0.0093637  -0.0081195   0.9592637  -0.0081316   0.0065516   0.0027233
   12  -0.0449949  -0.0025319   1.0095556   0.0011572   0.0011315  -0.0003138
   13  -0.0449979   0.0011592   1.0095593  -0.0025264   0.0027233  -0.0009795
            7           8           9          10          11          12
    1  -0.0450075   0.0093741  -0.0450025  -0.0449974   0.0093637  -0.0449949
    2  -0.0025359   0.9592600   1.0095699   1.0095612  -0.0081195  -0.0025319
    3   0.0011609  -0.0081225   0.0011596  -0.0025320   0.9592637   1.0095556
    4   1.0095875  -0.0081319  -0.0025265   0.0011577  -0.0081316   0.0011572
    5  -0.0278126   0.0065493   0.0027223   0.0011318   0.0065516   0.0011315
    6  -0.0136416   0.0011316  -0.0003136   0.0021866   0.0027233  -0.0003138
    7   0.9261852   0.0027231  -0.0009792  -0.0003138   0.0011319   0.0021862
    8   0.0027231   0.9175726  -0.0278026  -0.0278191   0.0065586   0.0027221
    9  -0.0009792  -0.0278026   0.9261774  -0.0136518   0.0011299  -0.0003133
   10  -0.0003138  -0.0278191  -0.0136518   0.9261493   0.0027220  -0.0009827
   11   0.0011319   0.0065586   0.0011299   0.0027220   0.9175768  -0.0278139
   12   0.0021862   0.0027221  -0.0003133  -0.0009827  -0.0278139   0.9261473
   13  -0.0003137   0.0011298   0.0021852  -0.0003131  -0.0278030  -0.0136547
           13
    1  -0.0449979
    2   0.0011592
    3   1.0095593
    4  -0.0025264
    5   0.0027233
    6  -0.0009795
    7  -0.0003137
    8   0.0011298
    9   0.0021852
   10  -0.0003131
   11  -0.0278030
   12  -0.0136547
   13   0.9261685


 JobOver = TRUE
Archival summary:
1\1\qciep03\SP\HF\BasisUnspecified\139\jcartus\ThuFeb112:17:402018ThuFeb112:17:402018\0\\#,HF,BasisUnspecified,\\0,1\N\C,1,1.45191\H,2,1.08876,1,109.619\H,2,1.08877,1,109.617,3,-118.854,0\H,2,1.10066,1,112.169,3,120.577,0\C,1,1.45194,2,110.457,3,-59.3189,0\H,6,1.08874,1,109.623,2,59.3185,0\H,6,1.08876,1,109.62,2,178.163,0\H,6,1.10067,1,112.166,2,-61.2702,0\C,1,1.45196,2,110.461,3,178.168,0\H,10,1.08873,1,109.624,2,-59.3197,0\H,10,1.08875,1,109.622,2,-178.159,0\H,10,1.10067,1,112.165,2,61.2672,0\\HF=-173.317606\\@

 Total job time:  77.98s(wall), 73.05s(cpu) 
 Thu Feb  1 12:17:40 2018

        *************************************************************
        *                                                           *
        *  Thank you very much for using Q-Chem.  Have a nice day.  *
        *                                                           *
        *************************************************************


*** MISSION COMPLETED -- STARFLEET OUT ***

0 sent ACK to 0 
now end server 0 ... 
