Process 0 of 1 is on qciep03 - thread support 0
initial socket setup ...start
initial socket setup ...done 
now start server 0 ... 
qciep03.tugraz.at 127.0.1
Q-Chem Developer Version! Running on 127.0.1.*
                  Welcome to Q-Chem
     A Quantum Leap Into The Future Of Chemistry


 Q-Chem 5.0, Q-Chem, Inc., Pleasanton, CA (2017)

 Yihan Shao,  Zhengting Gan,  E. Epifanovsky,  A. T. B. Gilbert,  M. Wormit,  
 J. Kussmann,  A. W. Lange,  A. Behn,  Jia Deng,  Xintian Feng,  D. Ghosh,  
 M. Goldey,  P. R. Horn,  L. D. Jacobson,  I. Kaliman,  T. Kus,  A. Landau,  
 Jie Liu,  E. I. Proynov,  R. M. Richard,  R. P. Steele,  E. J. Sundstrom,  
 H. L. Woodcock III,  P. M. Zimmerman,  D. Zuev,  B. Albrecht,  E. Alguire,  
 S. A. Baeppler,  D. Barton,  Z. Benda,  Y. A. Bernard,  E. J. Berquist,  
 K. B. Bravaya,  H. Burton,  D. Casanova,  Chun-Min Chang,  Yunqing Chen,  
 A. Chien,  K. D. Closser,  M. P. Coons,  S. Dasgupta,  A. L. Dempwolff,  
 M. Diedenhofen,  Hainam Do,  R. G. Edgar,  Po-Tung Fang,  S. Fatehi,  
 Qingguo Feng,  J. Fosso-Tande,  Qinghui Ge,  A. Ghysels,  G. Gidofalvi,  
 J. Gomes,  J. Gonthier,  A. Gunina,  M. W. D. Hanson-Heine,  
 P. H. P. Harbach,  A. W. Hauser,  J. E. Herr,  E. G. Hohenstein,  
 Z. C. Holden,  Kerwin Hui,  T.-C. Jagau,  Hyunjun Ji,  B. Kaduk,  
 K. Khistyaev,  Jaehoon Kim,  P. Klunzinger,  K. Koh,  D. Kosenkov,  
 L. Koulias,  T. Kowalczyk,  C. M. Krauter,  A. Kunitsa,  Ka Un Lao,  
 A. Laurent,  K. V. Lawler,  Joonho Lee,  D. Lefrancois,  S. Lehtola,  
 D. S. Levine,  Yi-Pei Li,  You-Sheng Lin,  Fenglai Liu,  E. Livshits,  
 A. Luenser,  P. Manohar,  E. Mansoor,  S. F. Manzer,  Shan-Ping Mao,  
 Yuezhi Mao,  N. Mardirossian,  A. V. Marenich,  T. Markovich,  
 L. A. Martinez-Martinez,  S. A. Maurer,  N. J. Mayhall,  S. C. McKenzie,  
 J.-M. Mewes,  A. F. Morrison,  J. W. Mullinax,  K. Nanda,  
 T. S. Nguyen-Beck,  R. Olivares-Amaya,  J. A. Parkhill,  T. M. Perrine,  
 F. Plasser,  S. Prager,  A. Prociuk,  E. Ramos,  D. R. Rehn,  F. Rob,  
 M. Schneider,  N. Sergueev,  S. M. Sharada,  S. Sharma,  D. W. Small,  
 T. Stauch,  T. Stein,  Yu-Chuan Su,  A. J. W. Thom,  A. Tkatchenko,  
 T. Tsuchimochi,  L. Vogt,  O. Vydrov,  M. A. Watson,  J. Wenzel,  
 M. de Wergifosse,  T. A. Wesolowski,  A. White,  J. Witte,  A. Yamada,  
 Jun Yang,  K. Yao,  S. Yeganeh,  S. R. Yost,  Zhi-Qiang You,  A. Zech,  
 Igor Ying Zhang,  Xing Zhang,  Yan Zhao,  Ying Zhu,  B. R. Brooks,  
 G. K. L. Chan,  C. J. Cramer,  M. S. Gordon,  W. J. Hehre,  A. Klamt,  
 M. W. Schmidt,  C. D. Sherrill,  D. G. Truhlar,  A. Aspuru-Guzik,  R. Baer,  
 A. T. Bell,  N. A. Besley,  Jeng-Da Chai,  R. A. DiStasio Jr.,  A. Dreuw,  
 B. D. Dunietz,  T. R. Furlani,  Chao-Ping Hsu,  Yousung Jung,  Jing Kong,  
 D. S. Lambrecht,  WanZhen Liang,  C. Ochsenfeld,  V. A. Rassolov,  
 L. V. Slipchenko,  J. E. Subotnik,  T. Van Voorhis,  J. M. Herbert,  
 A. I. Krylov,  P. M. W. Gill,  M. Head-Gordon

 Contributors to earlier versions of Q-Chem not listed above: 
 R. D. Adamson,  B. Austin,  J. Baker,  G. J. O. Beran,  K. Brandhorst,  
 S. T. Brown,  E. F. C. Byrd,  A. K. Chakraborty,  C.-L. Cheng,  
 Siu Hung Chien,  D. M. Chipman,  D. L. Crittenden,  H. Dachsel,  
 R. J. Doerksen,  A. D. Dutoi,  L. Fusti-Molnar,  W. A. Goddard III,  
 A. Golubeva-Zadorozhnaya,  S. R. Gwaltney,  G. Hawkins,  A. Heyden,  
 S. Hirata,  G. Kedziora,  F. J. Keil,  C. Kelley,  Jihan Kim,  R. A. King,  
 R. Z. Khaliullin,  P. P. Korambath,  W. Kurlancheek,  A. M. Lee,  M. S. Lee,  
 S. V. Levchenko,  Ching Yeh Lin,  D. Liotard,  R. C. Lochan,  I. Lotan,  
 P. E. Maslen,  N. Nair,  D. P. O'Neill,  D. Neuhauser,  E. Neuscamman,  
 C. M. Oana,  R. Olson,  B. Peters,  R. Peverati,  P. A. Pieniazek,  
 Y. M. Rhee,  J. Ritchie,  M. A. Rohrdanz,  E. Rosta,  N. J. Russ,  
 H. F. Schaefer III,  N. E. Schultz,  N. Shenvi,  A. C. Simmonett,  A. Sodt,  
 D. Stuck,  K. S. Thanthiriwatte,  V. Vanovschi,  Tao Wang,  A. Warshel,  
 C. F. Williams,  Q. Wu,  X. Xu,  W. Zhang

 Please cite Q-Chem as follows:
 Y. Shao et al., Mol. Phys. 113, 184-215 (2015)
 DOI: 10.1080/00268976.2014.952696

 Q-Chem 5.0.2 for Intel X86 EM64T Linux

 Parts of Q-Chem use Armadillo 5.200.1 (Boston Tea Smuggler).
 http://arma.sourceforge.net/

 Q-Chem begins on Thu Feb  1 12:09:22 2018  


Host: 0

     Scratch files written to /home/jcartus/scratch/39_methanol-fluoromethane_mono1.dir//
 Using version located at /usr/local/qchem/bin/qchem

 Parallel job on  1  processors

Total Memory Limit in MB = 2000
Mega-Array Size in MB = 192

Checking the input file for inconsistencies... 	...done.
Finally everything over in PARseQInput

--------------------------------------------------------------
User input:
--------------------------------------------------------------
$rem
SCF_PRINT                     1
BASIS                         6-311++g**
SCF_SAVE_MATRICES             1
SCF_CONVERGENCE               5
SCF_FINAL_PRINT               1
METHOD                        hf
JOBTYPE                       sp
$end

$molecule
0 1
H    0.855171335    -8.119e-06    -0.588786261
O    0.27154607    1.6357e-05    0.175592508
C    1.084050448    1.807e-06    1.33525199
H    0.417831608    -2.486e-06    2.192984764
H    1.718489566    -0.886312946    1.398035525
H    1.718498554    0.886309236    1.398050411
$end


--------------------------------------------------------------
 ----------------------------------------------------------------
             Standard Nuclear Orientation (Angstroms)
    I     Atom           X                Y                Z
 ----------------------------------------------------------------
    1      H       1.1287182227    -0.7603711130     0.0000002399
    2      O       0.7472570377     0.1224543043     0.0000001076
    3      C      -0.6615939127    -0.0193641646     0.0000000920
    4      H      -1.0841111868     0.9811518055    -0.0000321604
    5      H      -1.0265476198    -0.5421422501    -0.8862958366
    6      H      -1.0265522412    -0.5420878890     0.8863263446
 ----------------------------------------------------------------
 Molecular Point Group                 C1    NOp =  1
 Largest Abelian Subgroup              C1    NOp =  1
 Nuclear Repulsion Energy =    40.3992443945 hartrees
 There are        9 alpha and        9 beta electrons
 Requested basis set is 6-311++G(d,p)
 There are 32 shells and 72 basis functions

 Total QAlloc Memory Limit   2000 MB
 Mega-Array Size       188 MB
 MEM_STATIC part       192 MB

finished with qalloc call

                       Distance Matrix (Angstroms)
             H (  1)   O (  2)   C (  3)   H (  4)   H (  5)
   O (  2)  0.961714
   C (  3)  1.937604  1.415971
   H (  4)  2.815940  2.022689  1.086072
   H (  5)  2.340580  2.091313  1.091791  1.763293
   H (  6)  2.340601  2.091313  1.091792  1.763293  1.772622

 Job number = 2, Threshold = 1.00E-08
Integral type ranges set in mkLRange.C for JobNum: 2  <1-21|1-21>
Symmetry turned off temporarily
 Using the largest function pair in Schwarz integrals
Total number of integrals generated =           34749
Symmetry turned back on
 A cutoff of  1.0D-08 yielded    528 shell pairs
 There are      2708 function pairs (      2865 Cartesian)
 Job number = 11, Threshold = 1.00E-08
Integral type ranges set in mkLRange.C for JobNum: 11  <1-21|22-22>
Total number of integrals generated =           17190
 Smallest overlap matrix eigenvalue = 1.05E-03
 Multipole matrices computed through 2nd order

 Scale SEOQF with 1.000000e-01/1.000000e-01/1.000000e-01

 Standard Electronic Orientation quadrupole field applied
 Nucleus-field energy     =     0.0000000004 hartrees
 ENuRep (before)= 40.3992443945
 ENucField = 0.0000000004
 ENuRep (after) = 40.3992443949
 Guess from superposition of atomic densities
 Warning:  Energy on first SCF cycle will be non-variational
 SAD guess density has 18.000000 electrons

 ==================================================
    GEN_SCFMAN: A general SCF calculation manager  
                                                   
    Authors:                                       
        -- Eric Jon Sundstrom 2008-2014            
        -- Paul Horn 2010-2015                     
        -- Yuezhi Mao 2012-                        
        -- Dmitri Zuev 2014                        
        -- Alec White 2015-                        
        -- David Stuck 2015                        
        -- Shaama M.S. 2015                        
        -- Shane Yost 2015-                         
        -- Joonho Lee 2016-                        
        -- David Small 2016-                       
        -- Daniel Levine 2016-                     
        -- Susi Lehtola 2017-                      
        -- Hugh Burton 2017-                       
 ==================================================
 Hartree-Fock
Finding J and K together
 Job number = 22, Threshold = 1.00E-08
Integral type ranges set in mkLRange.C for JobNum: 22  <1-21|1-21>
 MakeJK  time:  CPU       0.28 s  wall       0.29 s
 HF Exchange:              -14.65909517643581
 One-Electron:             -235.06467143838938
 Total Coulomb:             94.01366790513789
 Nuclear repulsion:         40.39924439493475
 A restricted SCF calculation will be
 performed using DIIS
 SCF converges when DIIS error is below 1.0e-05
 ---------------------------------------
  Cycle       Energy         DIIS error
 ---------------------------------------
Finding J and K together
 Job number = 22, Threshold = 1.00E-08
Integral type ranges set in mkLRange.C for JobNum: 22  <1-21|1-21>
 MakeJK  time:  CPU       0.56 s  wall       0.56 s
 HF Exchange:              -14.88317330766199
 One-Electron:             -237.47139766993493
 Total Coulomb:             96.91144804342163
 Nuclear repulsion:         40.39924439493475
    1    -115.3108543148      7.02e-02  
Finding J and K together
 Job number = 22, Threshold = 1.00E-08
Integral type ranges set in mkLRange.C for JobNum: 22  <1-21|1-21>
 MakeJK  time:  CPU       0.68 s  wall       0.70 s
 HF Exchange:              -14.77924526626433
 One-Electron:             -236.50304882143294
 Total Coulomb:             95.81106942328294
 Nuclear repulsion:         40.39924439493475
    2    -115.0438785392      7.74e-03  
Finding J and K together
 Job number = 22, Threshold = 1.00E-08
Integral type ranges set in mkLRange.C for JobNum: 22  <1-21|1-21>
 MakeJK  time:  CPU       0.76 s  wall       0.78 s
 HF Exchange:              -14.85876834394124
 One-Electron:             -237.06354266324169
 Total Coulomb:             96.44388582704445
 Nuclear repulsion:         40.39924439493475
    3    -115.0719802695      4.13e-03  
Finding J and K together
 Job number = 22, Threshold = 1.00E-08
Integral type ranges set in mkLRange.C for JobNum: 22  <1-21|1-21>
 MakeJK  time:  CPU       0.87 s  wall       0.89 s
 HF Exchange:              -14.85131763614173
 One-Electron:             -236.96700910356063
 Total Coulomb:             96.33948415083930
 Nuclear repulsion:         40.39924439493475
    4    -115.0791807852      7.92e-04  
Finding J and K together
 Job number = 22, Threshold = 1.00E-08
Integral type ranges set in mkLRange.C for JobNum: 22  <1-21|1-21>
 MakeJK  time:  CPU       0.87 s  wall       0.92 s
 HF Exchange:              -14.85401525634727
 One-Electron:             -236.98272343316376
 Total Coulomb:             96.35787701565515
 Nuclear repulsion:         40.39924439493475
    5    -115.0795981939      1.36e-04  
Finding J and K together
 Job number = 22, Threshold = 1.00E-08
Integral type ranges set in mkLRange.C for JobNum: 22  <1-21|1-21>
 MakeJK  time:  CPU       0.56 s  wall       0.57 s
 HF Exchange:              -14.85373633802012
 One-Electron:             -236.97807805338087
 Total Coulomb:             96.35295163564416
 Nuclear repulsion:         40.39924439493475
    6    -115.0796172789      2.97e-05  
    7    -115.0796183608      9.57e-06  Convergence criterion met
 ---------------------------------------
 SCF time:   CPU 4.68s  wall 5.00s 
 Total energy in the final basis set =     -115.0796183608
 HF Exchange:              -14.85373633802012
 One-Electron:             -236.97807805338087
 Total Coulomb:             96.35295163564416
 Nuclear repulsion:         40.39924439493475
Wall  1 = 5
Clock 1 = 4.69140815734863
 ==================================================
                  Done GEN_SCFMAN                  
 ==================================================

Symmetry turned off temporarily

 --------------------------------------------------------------

                    Orbital Energies (a.u.)
 --------------------------------------------------------------

 Alpha MOs
 -- Occupied --
-20.559 -11.273  -1.361  -0.928  -0.694  -0.622  -0.596  -0.505
 -0.452
 -- Virtual --
  0.039   0.064   0.073   0.081   0.127   0.146   0.159   0.183
  0.280   0.289   0.297   0.298   0.311   0.330   0.353   0.395
  0.478   0.564   0.577   0.710   0.777   0.846   0.854   0.879
  1.067   1.191   1.236   1.289   1.375   1.441   1.619   1.679
  1.715   1.792   1.808   1.813   1.956   1.966   2.082   2.305
  2.348   2.420   2.516   2.710   2.759   2.785   2.852   2.854
  2.989   3.199   3.358   3.472   3.598   3.691   4.138   4.187
  4.322   4.448   5.567   5.920   6.212  25.078  51.599
 --------------------------------------------------------------

          Ground-State Mulliken Net Atomic Charges

     Atom                 Charge (a.u.)
  ----------------------------------------
      1 H                     0.256514
      2 O                    -0.381010
      3 C                    -0.215907
      4 H                     0.132211
      5 H                     0.104095
      6 H                     0.104097
  ----------------------------------------
  Sum of atomic charges =    -0.000000

 -----------------------------------------------------------------
                    Cartesian Multipole Moments
 -----------------------------------------------------------------
    Charge (ESU x 10^10)
                 0.0000
    Dipole Moment (Debye)
         X      -1.0725      Y      -1.7044      Z      -0.0000
       Tot       2.0138
    Quadrupole Moments (Debye-Ang)
        XX     -13.0466     XY      -2.4283     YY     -12.1435
        XZ       0.0000     YZ      -0.0000     ZZ     -13.7718
    Octopole Moments (Debye-Ang^2)
       XXX       3.7072    XXY      -2.5976    XYY       1.7020
       YYY      -0.8193    XXZ      -0.0000    XYZ       0.0000
       YYZ      -0.0001    XZZ       0.1915    YZZ      -0.7566
       ZZZ       0.0000
    Hexadecapole Moments (Debye-Ang^3)
      XXXX     -61.6755   XXXY      -4.2279   XXYY     -12.5121
      XYYY      -3.2760   YYYY     -19.7957   XXXZ       0.0000
      XXYZ      -0.0000   XYYZ       0.0001   YYYZ      -0.0000
      XXZZ     -14.3689   XYZZ       0.0565   YYZZ      -6.7554
      XZZZ      -0.0000   YZZZ      -0.0000   ZZZZ     -19.7366
 -----------------------------------------------------------------
 Mayer SCF Bond Order, atomic valence on the diagonal:

            1           2           3           4           5           6
    1   0.9570052   0.9452764   0.0109362   0.0060563  -0.0026317  -0.0026319
    2   0.9452764   1.7168727   0.8749536  -0.0487125  -0.0273224  -0.0273225
    3   0.0109362   0.8749536   3.8574059   0.9998733   0.9858216   0.9858212
    4   0.0060563  -0.0487125   0.9998733   0.9171507  -0.0200332  -0.0200332
    5  -0.0026317  -0.0273224   0.9858216  -0.0200332   0.9141952  -0.0216390
    6  -0.0026319  -0.0273225   0.9858212  -0.0200332  -0.0216390   0.9141946


 JobOver = TRUE
Archival summary:
1\1\qciep03\SP\HF\BasisUnspecified\114\jcartus\ThuFeb112:09:272018ThuFeb112:09:272018\0\\#,HF,BasisUnspecified,\\0,1\O\H,1,0.961714\C,1,1.41597,2,107.621\H,3,1.08607,1,107.146,2,-179.998,0\H,3,1.09179,1,112.368,2,-61.3814,0\H,3,1.09179,1,112.368,2,61.385,0\\HF=-115.079618\\@

 Total job time:  4.93s(wall), 4.80s(cpu) 
 Thu Feb  1 12:09:27 2018

        *************************************************************
        *                                                           *
        *  Thank you very much for using Q-Chem.  Have a nice day.  *
        *                                                           *
        *************************************************************


*** MISSION COMPLETED -- STARFLEET OUT ***

0 sent ACK to 0 
now end server 0 ... 
