Process 0 of 1 is on qciep03 - thread support 0
initial socket setup ...start
initial socket setup ...done 
now start server 0 ... 
qciep03.tugraz.at 127.0.1
Q-Chem Developer Version! Running on 127.0.1.*
                  Welcome to Q-Chem
     A Quantum Leap Into The Future Of Chemistry


 Q-Chem 5.0, Q-Chem, Inc., Pleasanton, CA (2017)

 Yihan Shao,  Zhengting Gan,  E. Epifanovsky,  A. T. B. Gilbert,  M. Wormit,  
 J. Kussmann,  A. W. Lange,  A. Behn,  Jia Deng,  Xintian Feng,  D. Ghosh,  
 M. Goldey,  P. R. Horn,  L. D. Jacobson,  I. Kaliman,  T. Kus,  A. Landau,  
 Jie Liu,  E. I. Proynov,  R. M. Richard,  R. P. Steele,  E. J. Sundstrom,  
 H. L. Woodcock III,  P. M. Zimmerman,  D. Zuev,  B. Albrecht,  E. Alguire,  
 S. A. Baeppler,  D. Barton,  Z. Benda,  Y. A. Bernard,  E. J. Berquist,  
 K. B. Bravaya,  H. Burton,  D. Casanova,  Chun-Min Chang,  Yunqing Chen,  
 A. Chien,  K. D. Closser,  M. P. Coons,  S. Dasgupta,  A. L. Dempwolff,  
 M. Diedenhofen,  Hainam Do,  R. G. Edgar,  Po-Tung Fang,  S. Fatehi,  
 Qingguo Feng,  J. Fosso-Tande,  Qinghui Ge,  A. Ghysels,  G. Gidofalvi,  
 J. Gomes,  J. Gonthier,  A. Gunina,  M. W. D. Hanson-Heine,  
 P. H. P. Harbach,  A. W. Hauser,  J. E. Herr,  E. G. Hohenstein,  
 Z. C. Holden,  Kerwin Hui,  T.-C. Jagau,  Hyunjun Ji,  B. Kaduk,  
 K. Khistyaev,  Jaehoon Kim,  P. Klunzinger,  K. Koh,  D. Kosenkov,  
 L. Koulias,  T. Kowalczyk,  C. M. Krauter,  A. Kunitsa,  Ka Un Lao,  
 A. Laurent,  K. V. Lawler,  Joonho Lee,  D. Lefrancois,  S. Lehtola,  
 D. S. Levine,  Yi-Pei Li,  You-Sheng Lin,  Fenglai Liu,  E. Livshits,  
 A. Luenser,  P. Manohar,  E. Mansoor,  S. F. Manzer,  Shan-Ping Mao,  
 Yuezhi Mao,  N. Mardirossian,  A. V. Marenich,  T. Markovich,  
 L. A. Martinez-Martinez,  S. A. Maurer,  N. J. Mayhall,  S. C. McKenzie,  
 J.-M. Mewes,  A. F. Morrison,  J. W. Mullinax,  K. Nanda,  
 T. S. Nguyen-Beck,  R. Olivares-Amaya,  J. A. Parkhill,  T. M. Perrine,  
 F. Plasser,  S. Prager,  A. Prociuk,  E. Ramos,  D. R. Rehn,  F. Rob,  
 M. Schneider,  N. Sergueev,  S. M. Sharada,  S. Sharma,  D. W. Small,  
 T. Stauch,  T. Stein,  Yu-Chuan Su,  A. J. W. Thom,  A. Tkatchenko,  
 T. Tsuchimochi,  L. Vogt,  O. Vydrov,  M. A. Watson,  J. Wenzel,  
 M. de Wergifosse,  T. A. Wesolowski,  A. White,  J. Witte,  A. Yamada,  
 Jun Yang,  K. Yao,  S. Yeganeh,  S. R. Yost,  Zhi-Qiang You,  A. Zech,  
 Igor Ying Zhang,  Xing Zhang,  Yan Zhao,  Ying Zhu,  B. R. Brooks,  
 G. K. L. Chan,  C. J. Cramer,  M. S. Gordon,  W. J. Hehre,  A. Klamt,  
 M. W. Schmidt,  C. D. Sherrill,  D. G. Truhlar,  A. Aspuru-Guzik,  R. Baer,  
 A. T. Bell,  N. A. Besley,  Jeng-Da Chai,  R. A. DiStasio Jr.,  A. Dreuw,  
 B. D. Dunietz,  T. R. Furlani,  Chao-Ping Hsu,  Yousung Jung,  Jing Kong,  
 D. S. Lambrecht,  WanZhen Liang,  C. Ochsenfeld,  V. A. Rassolov,  
 L. V. Slipchenko,  J. E. Subotnik,  T. Van Voorhis,  J. M. Herbert,  
 A. I. Krylov,  P. M. W. Gill,  M. Head-Gordon

 Contributors to earlier versions of Q-Chem not listed above: 
 R. D. Adamson,  B. Austin,  J. Baker,  G. J. O. Beran,  K. Brandhorst,  
 S. T. Brown,  E. F. C. Byrd,  A. K. Chakraborty,  C.-L. Cheng,  
 Siu Hung Chien,  D. M. Chipman,  D. L. Crittenden,  H. Dachsel,  
 R. J. Doerksen,  A. D. Dutoi,  L. Fusti-Molnar,  W. A. Goddard III,  
 A. Golubeva-Zadorozhnaya,  S. R. Gwaltney,  G. Hawkins,  A. Heyden,  
 S. Hirata,  G. Kedziora,  F. J. Keil,  C. Kelley,  Jihan Kim,  R. A. King,  
 R. Z. Khaliullin,  P. P. Korambath,  W. Kurlancheek,  A. M. Lee,  M. S. Lee,  
 S. V. Levchenko,  Ching Yeh Lin,  D. Liotard,  R. C. Lochan,  I. Lotan,  
 P. E. Maslen,  N. Nair,  D. P. O'Neill,  D. Neuhauser,  E. Neuscamman,  
 C. M. Oana,  R. Olson,  B. Peters,  R. Peverati,  P. A. Pieniazek,  
 Y. M. Rhee,  J. Ritchie,  M. A. Rohrdanz,  E. Rosta,  N. J. Russ,  
 H. F. Schaefer III,  N. E. Schultz,  N. Shenvi,  A. C. Simmonett,  A. Sodt,  
 D. Stuck,  K. S. Thanthiriwatte,  V. Vanovschi,  Tao Wang,  A. Warshel,  
 C. F. Williams,  Q. Wu,  X. Xu,  W. Zhang

 Please cite Q-Chem as follows:
 Y. Shao et al., Mol. Phys. 113, 184-215 (2015)
 DOI: 10.1080/00268976.2014.952696

 Q-Chem 5.0.2 for Intel X86 EM64T Linux

 Parts of Q-Chem use Armadillo 5.200.1 (Boston Tea Smuggler).
 http://arma.sourceforge.net/

 Q-Chem begins on Thu Feb  1 12:14:19 2018  


Host: 0

     Scratch files written to /home/jcartus/scratch/27_CH3Br-ben_mono1.dir//
 Using version located at /usr/local/qchem/bin/qchem

 Parallel job on  1  processors

Total Memory Limit in MB = 2000
Mega-Array Size in MB = 192

Checking the input file for inconsistencies... 	...done.
Finally everything over in PARseQInput

--------------------------------------------------------------
User input:
--------------------------------------------------------------
$rem
SCF_PRINT                     1
BASIS                         6-311++g**
SCF_SAVE_MATRICES             1
SCF_CONVERGENCE               5
SCF_FINAL_PRINT               1
METHOD                        hf
JOBTYPE                       sp
$end

$molecule
0 1
H    0.007708134    0.214277133    0.052325531
C    0.010385622    0.200473849    1.133644571
C    1.217878091    0.246168636    1.828432064
C    1.221255777    0.22318328    3.221703755
C    0.017504067    0.154434365    3.920526125
C    -1.189794814    0.108384428    3.226223411
C    -1.193620703    0.131422512    1.832737209
H    2.152051476    0.294829039    1.28581497
H    2.158358824    0.255184368    3.760583554
H    0.020469186    0.133277566    5.001767838
H    -2.12372701    0.050629146    3.768357732
H    -2.130144916    0.090891901    1.293508374
$end


--------------------------------------------------------------
 ----------------------------------------------------------------
             Standard Nuclear Orientation (Angstroms)
    I     Atom           X                Y                Z
 ----------------------------------------------------------------
    1      H       0.6958377480     2.3753313695    -0.0031609366
    2      C       0.3918900559     1.3375218604     0.0008126278
    3      C       1.3542899216     0.3292351162     0.0005359006
    4      C       0.9623248923    -1.0079668698     0.0004659104
    5      C      -0.3917913311    -1.3373094497     0.0005922952
    6      C      -1.3541607297    -0.3295433172     0.0005131380
    7      C      -0.9625616946     1.0079914905     0.0006535495
    8      H       2.4050013970     0.5850935079    -0.0042534095
    9      H       1.7091363197    -1.7901668431    -0.0032112926
   10      H      -0.6958113809    -2.3751439216    -0.0027932868
   11      H      -2.4049619355    -0.5850288568    -0.0038003534
   12      H      -1.7091488348     1.7903417617    -0.0042212499
 ----------------------------------------------------------------
 Molecular Point Group                 C1    NOp =  1
 Largest Abelian Subgroup              C1    NOp =  1
 Nuclear Repulsion Energy =   203.7092182698 hartrees
 There are       21 alpha and       21 beta electrons
 Requested basis set is 6-311++G(d,p)
 There are 66 shells and 174 basis functions

 Total QAlloc Memory Limit   2000 MB
 Mega-Array Size       188 MB
 MEM_STATIC part       192 MB

finished with qalloc call

                       Distance Matrix (Angstroms)
             H (  1)   C (  2)   C (  3)   C (  4)   C (  5)   C (  6)
   C (  2)  1.081410
   C (  3)  2.149438  1.393864
   C (  4)  3.393779  2.413859  1.393465
   C (  5)  3.868676  2.787271  2.413746  1.393592
   C (  6)  3.393944  2.414084  2.787417  2.413786  1.393466
   C (  7)  2.149400  1.393962  2.414231  2.787342  2.413755  1.393682
   H (  8)  2.475115  2.149137  1.081425  2.149228  3.393775  3.868835
   H (  9)  4.286974  3.393758  2.148905  1.081470  2.149184  3.393704
   H ( 10)  4.950122  3.868720  3.393611  2.149093  1.081453  2.148934
   H ( 11)  4.287038  3.393907  3.868833  3.393747  2.149140  1.081423
   H ( 12)  2.475111  2.149287  3.394041  3.868763  3.393767  2.149407
             C (  7)   H (  8)   H (  9)   H ( 10)   H ( 11)
   H (  8)  3.394016
   H (  9)  3.868808  2.475094
   H ( 10)  3.393637  4.286963  2.475070
   H ( 11)  2.149012  4.950246  4.286976  2.475017
   H ( 12)  1.081429  4.287057  4.950224  4.286972  2.475185

 Job number = 2, Threshold = 1.00E-08
Integral type ranges set in mkLRange.C for JobNum: 2  <1-21|1-21>
Symmetry turned off temporarily
 Using the largest function pair in Schwarz integrals
Total number of integrals generated =          233997
Symmetry turned back on
 A cutoff of  1.0D-08 yielded   2055 shell pairs
 There are     14694 function pairs (     15765 Cartesian)
 Job number = 11, Threshold = 1.00E-08
Integral type ranges set in mkLRange.C for JobNum: 11  <1-21|22-22>
Total number of integrals generated =          189180
 Smallest overlap matrix eigenvalue = 1.06E-06

 Q-Chem warning in module /usr/local/qchem/stvman/mkSTV.C, line 295:

 Overlap eigenvalue is smaller than square root of threshold

 Multipole matrices computed through 2nd order

 Scale SEOQF with 1.000000e-01/1.000000e-01/1.000000e-01

 Standard Electronic Orientation quadrupole field applied
 Nucleus-field energy     =     0.0000000057 hartrees
 ENuRep (before)= 203.7092182698
 ENucField = 0.0000000057
 ENuRep (after) = 203.7092182755
 Guess from superposition of atomic densities
 Warning:  Energy on first SCF cycle will be non-variational
 SAD guess density has 42.000000 electrons

 ==================================================
    GEN_SCFMAN: A general SCF calculation manager  
                                                   
    Authors:                                       
        -- Eric Jon Sundstrom 2008-2014            
        -- Paul Horn 2010-2015                     
        -- Yuezhi Mao 2012-                        
        -- Dmitri Zuev 2014                        
        -- Alec White 2015-                        
        -- David Stuck 2015                        
        -- Shaama M.S. 2015                        
        -- Shane Yost 2015-                         
        -- Joonho Lee 2016-                        
        -- David Small 2016-                       
        -- Daniel Levine 2016-                     
        -- Susi Lehtola 2017-                      
        -- Hugh Burton 2017-                       
 ==================================================
 Hartree-Fock
Finding J and K together
 Job number = 22, Threshold = 1.00E-08
Integral type ranges set in mkLRange.C for JobNum: 22  <1-21|1-21>
 MakeJK  time:  CPU       4.45 s  wall       4.77 s
 HF Exchange:              -34.15308137125179
 One-Electron:             -709.37244956831080
 Total Coulomb:            306.56051897302274
 Nuclear repulsion:        203.70921827549273
 A restricted SCF calculation will be
 performed using DIIS
 SCF converges when DIIS error is below 1.0e-05
 ---------------------------------------
  Cycle       Energy         DIIS error
 ---------------------------------------
Finding J and K together
 Job number = 22, Threshold = 1.00E-08
Integral type ranges set in mkLRange.C for JobNum: 22  <1-21|1-21>
 MakeJK  time:  CPU      16.55 s  wall      17.63 s
 HF Exchange:              -33.16855144484551
 One-Electron:             -714.18418689253690
 Total Coulomb:            312.95135145328260
 Nuclear repulsion:        203.70921827549273
    1    -233.2557936910      5.19e-02  
Finding J and K together
 Job number = 22, Threshold = 1.00E-08
Integral type ranges set in mkLRange.C for JobNum: 22  <1-21|1-21>
 MakeJK  time:  CPU      16.80 s  wall      17.60 s
 HF Exchange:              -33.21259522744209
 One-Electron:             -713.38716438960455
 Total Coulomb:            312.13914377758084
 Nuclear repulsion:        203.70921827549273
    2    -230.6921686086      3.32e-03  
Finding J and K together
 Job number = 22, Threshold = 1.00E-08
Integral type ranges set in mkLRange.C for JobNum: 22  <1-21|1-21>
 MakeJK  time:  CPU      16.64 s  wall      17.31 s
 HF Exchange:              -33.26797540287751
 One-Electron:             -714.03403378829273
 Total Coulomb:            312.83694126827447
 Nuclear repulsion:        203.70921827549273
    3    -230.7513975640      9.06e-04  
Finding J and K together
 Job number = 22, Threshold = 1.00E-08
Integral type ranges set in mkLRange.C for JobNum: 22  <1-21|1-21>
 MakeJK  time:  CPU      16.63 s  wall      16.95 s
 HF Exchange:              -33.25386982865167
 One-Electron:             -713.74307841775351
 Total Coulomb:            312.53137867496889
 Nuclear repulsion:        203.70921827549273
    4    -230.7558496474      3.48e-04  
Finding J and K together
 Job number = 22, Threshold = 1.00E-08
Integral type ranges set in mkLRange.C for JobNum: 22  <1-21|1-21>
 MakeJK  time:  CPU      16.42 s  wall      16.74 s
 HF Exchange:              -33.25491630822845
 One-Electron:             -713.75497557846415
 Total Coulomb:            312.54431167396427
 Nuclear repulsion:        203.70921827549273
    5    -230.7563512959      3.45e-05  
    6    -230.7563619372      6.39e-06  Convergence criterion met
 ---------------------------------------
 SCF time:   CPU 88.47s  wall 92.00s 
 Total energy in the final basis set =     -230.7563619372
 HF Exchange:              -33.25491630822845
 One-Electron:             -713.75497557846415
 Total Coulomb:            312.54431167396427
 Nuclear repulsion:        203.70921827549273
Wall  1 = 93
Clock 1 = 88.63378906250000
 ==================================================
                  Done GEN_SCFMAN                  
 ==================================================

Symmetry turned off temporarily

 --------------------------------------------------------------

                    Orbital Energies (a.u.)
 --------------------------------------------------------------

 Alpha MOs
 -- Occupied --
-11.238 -11.238 -11.238 -11.236 -11.236 -11.236  -1.153  -1.017
 -1.017  -0.826  -0.826  -0.712  -0.645  -0.621  -0.590  -0.590
 -0.502  -0.496  -0.496  -0.337  -0.337
 -- Virtual --
  0.042   0.049   0.049   0.066   0.066   0.088   0.109   0.109
  0.129   0.153   0.153   0.158   0.163   0.181   0.181   0.183
  0.183   0.193   0.209   0.212   0.212   0.216   0.216   0.217
  0.228   0.228   0.250   0.250   0.289   0.289   0.303   0.333
  0.335   0.369   0.409   0.409   0.430   0.430   0.441   0.499
  0.499   0.509   0.509   0.604   0.610   0.715   0.723   0.723
  0.729   0.751   0.751   0.752   0.758   0.758   0.797   0.820
  0.820   0.886   0.940   0.940   0.952   0.952   0.976   1.016
  1.016   1.017   1.059   1.059   1.108   1.122   1.122   1.131
  1.170   1.219   1.219   1.250   1.324   1.324   1.392   1.392
  1.524   1.557   1.711   1.787   1.787   1.796   1.827   1.846
  1.846   1.908   1.908   1.934   1.934   1.992   2.056   2.056
  2.104   2.104   2.132   2.237   2.237   2.239   2.249   2.249
  2.299   2.348   2.348   2.380   2.380   2.641   2.664   2.744
  2.744   2.746   2.817   2.817   2.963   2.963   2.988   2.996
  3.022   3.022   3.045   3.045   3.058   3.088   3.192   3.192
  3.268   3.294   3.294   3.331   3.331   3.482   3.550   3.777
  3.777   3.908   3.908   3.922   4.083   4.410   4.410   4.501
  4.576   4.576   5.279  24.752  25.139  25.140  25.262  25.262
 25.373
 --------------------------------------------------------------

          Ground-State Mulliken Net Atomic Charges

     Atom                 Charge (a.u.)
  ----------------------------------------
      1 H                     0.192542
      2 C                    -0.192414
      3 C                    -0.192593
      4 C                    -0.192523
      5 C                    -0.192531
      6 C                    -0.192611
      7 C                    -0.192501
      8 H                     0.192520
      9 H                     0.192533
     10 H                     0.192520
     11 H                     0.192516
     12 H                     0.192542
  ----------------------------------------
  Sum of atomic charges =    -0.000000

 -----------------------------------------------------------------
                    Cartesian Multipole Moments
 -----------------------------------------------------------------
    Charge (ESU x 10^10)
                -0.0000
    Dipole Moment (Debye)
         X       0.0000      Y       0.0001      Z      -0.0185
       Tot       0.0185
    Quadrupole Moments (Debye-Ang)
        XX     -31.9199     XY       0.0001     YY     -31.9205
        XZ       0.0005     YZ      -0.0036     ZZ     -41.3002
    Octopole Moments (Debye-Ang^2)
       XXX      -0.0002    XXY       0.0017    XYY       0.0003
       YYY       0.0039    XXZ      -0.0925    XYZ       0.0017
       YYZ      -0.0804    XZZ      -0.0000    YZZ      -0.0028
       ZZZ      -0.0345
    Hexadecapole Moments (Debye-Ang^3)
      XXXX    -270.3573   XXXY       0.0018   XXYY     -90.1131
      XYYY      -0.0006   YYYY    -270.3250   XXXZ      -0.0011
      XXYZ      -0.0114   XYYZ       0.0051   YYYZ      -0.0200
      XXZZ     -66.0400   XYZZ       0.0002   YYZZ     -66.0358
      XZZZ       0.0007   YZZZ      -0.0056   ZZZZ     -52.1388
 -----------------------------------------------------------------
 Mayer SCF Bond Order, atomic valence on the diagonal:

            1           2           3           4           5           6
    1   0.9409004   0.7787400   0.0911693  -0.0265989   0.0102021  -0.0265902
    2   0.7787400   4.4330005   1.8302341  -0.0972096   0.0485557  -0.0971407
    3   0.0911693   1.8302341   4.4333877   1.8309517  -0.0973113   0.0483574
    4  -0.0265989  -0.0972096   1.8309517   4.4334852   1.8305226  -0.0971659
    5   0.0102021   0.0485557  -0.0973113   1.8305226   4.4336245   1.8308947
    6  -0.0265902  -0.0971407   0.0483574  -0.0971659   1.8308947   4.4334873
    7   0.0911421   1.8304377  -0.0969041   0.0483043  -0.0972303   1.8304245
    8   0.0108095   0.0911828   0.7785668   0.0913614  -0.0266234   0.0102064
    9   0.0006075  -0.0266310   0.0913687   0.7783999   0.0914063  -0.0266665
   10  -0.0000004   0.0102101  -0.0266321   0.0913209   0.7785014   0.0913099
   11   0.0006073  -0.0265896   0.0102062  -0.0266219   0.0913508   0.7785257
   12   0.0108122   0.0912110  -0.0266190   0.0102207  -0.0266442   0.0913320
            7           8           9          10          11          12
    1   0.0911421   0.0108095   0.0006075  -0.0000004   0.0006073   0.0108122
    2   1.8304377   0.0911828  -0.0266310   0.0102101  -0.0265896   0.0912110
    3  -0.0969041   0.7785668   0.0913687  -0.0266321   0.0102062  -0.0266190
    4   0.0483043   0.0913614   0.7783999   0.0913209  -0.0266219   0.0102207
    5  -0.0972303  -0.0266234   0.0914063   0.7785014   0.0913508  -0.0266442
    6   1.8304245   0.0102064  -0.0266665   0.0913099   0.7785257   0.0913320
    7   4.4330334  -0.0265827   0.0102234  -0.0266090   0.0912444   0.7785831
    8  -0.0265827   0.9409491   0.0108136   0.0006077   0.0000002   0.0006066
    9   0.0102234   0.0108136   0.9409450   0.0108154   0.0006072   0.0000003
   10  -0.0266090   0.0006077   0.0108154   0.9409431   0.0108114   0.0006077
   11   0.0912444   0.0000002   0.0006072   0.0108114   0.9409532   0.0108115
   12   0.7785831   0.0006066   0.0000003   0.0006077   0.0108115   0.9409219


 JobOver = TRUE
Archival summary:
1\1\qciep03\SP\HF\BasisUnspecified\66\jcartus\ThuFeb112:15:522018ThuFeb112:15:522018\0\\#,HF,BasisUnspecified,\\0,1\C\H,1,1.08145\C,1,1.39347,2,119.993\H,3,1.08142,1,120.014,2,-0.053069,0\C,1,1.39359,2,119.997,3,-179.783,0\H,5,1.08147,1,120.004,2,0.0118525,0\C,5,1.39347,1,120.007,2,179.796,0\H,7,1.08143,5,120.022,1,-179.713,0\C,3,1.39368,1,120.001,2,-179.8,0\H,9,1.08143,3,120.021,1,179.705,0\C,7,1.39386,5,119.997,1,0.00381068,0\H,11,1.08141,7,120.01,5,-179.754,0\\HF=-230.756362\\@

 Total job time:  92.96s(wall), 89.27s(cpu) 
 Thu Feb  1 12:15:52 2018

        *************************************************************
        *                                                           *
        *  Thank you very much for using Q-Chem.  Have a nice day.  *
        *                                                           *
        *************************************************************


*** MISSION COMPLETED -- STARFLEET OUT ***

0 sent ACK to 0 
now end server 0 ... 
