Process 0 of 1 is on qciep03 - thread support 0
initial socket setup ...start
initial socket setup ...done 
now start server 0 ... 
qciep03.tugraz.at 127.0.1
Q-Chem Developer Version! Running on 127.0.1.*
                  Welcome to Q-Chem
     A Quantum Leap Into The Future Of Chemistry


 Q-Chem 5.0, Q-Chem, Inc., Pleasanton, CA (2017)

 Yihan Shao,  Zhengting Gan,  E. Epifanovsky,  A. T. B. Gilbert,  M. Wormit,  
 J. Kussmann,  A. W. Lange,  A. Behn,  Jia Deng,  Xintian Feng,  D. Ghosh,  
 M. Goldey,  P. R. Horn,  L. D. Jacobson,  I. Kaliman,  T. Kus,  A. Landau,  
 Jie Liu,  E. I. Proynov,  R. M. Richard,  R. P. Steele,  E. J. Sundstrom,  
 H. L. Woodcock III,  P. M. Zimmerman,  D. Zuev,  B. Albrecht,  E. Alguire,  
 S. A. Baeppler,  D. Barton,  Z. Benda,  Y. A. Bernard,  E. J. Berquist,  
 K. B. Bravaya,  H. Burton,  D. Casanova,  Chun-Min Chang,  Yunqing Chen,  
 A. Chien,  K. D. Closser,  M. P. Coons,  S. Dasgupta,  A. L. Dempwolff,  
 M. Diedenhofen,  Hainam Do,  R. G. Edgar,  Po-Tung Fang,  S. Fatehi,  
 Qingguo Feng,  J. Fosso-Tande,  Qinghui Ge,  A. Ghysels,  G. Gidofalvi,  
 J. Gomes,  J. Gonthier,  A. Gunina,  M. W. D. Hanson-Heine,  
 P. H. P. Harbach,  A. W. Hauser,  J. E. Herr,  E. G. Hohenstein,  
 Z. C. Holden,  Kerwin Hui,  T.-C. Jagau,  Hyunjun Ji,  B. Kaduk,  
 K. Khistyaev,  Jaehoon Kim,  P. Klunzinger,  K. Koh,  D. Kosenkov,  
 L. Koulias,  T. Kowalczyk,  C. M. Krauter,  A. Kunitsa,  Ka Un Lao,  
 A. Laurent,  K. V. Lawler,  Joonho Lee,  D. Lefrancois,  S. Lehtola,  
 D. S. Levine,  Yi-Pei Li,  You-Sheng Lin,  Fenglai Liu,  E. Livshits,  
 A. Luenser,  P. Manohar,  E. Mansoor,  S. F. Manzer,  Shan-Ping Mao,  
 Yuezhi Mao,  N. Mardirossian,  A. V. Marenich,  T. Markovich,  
 L. A. Martinez-Martinez,  S. A. Maurer,  N. J. Mayhall,  S. C. McKenzie,  
 J.-M. Mewes,  A. F. Morrison,  J. W. Mullinax,  K. Nanda,  
 T. S. Nguyen-Beck,  R. Olivares-Amaya,  J. A. Parkhill,  T. M. Perrine,  
 F. Plasser,  S. Prager,  A. Prociuk,  E. Ramos,  D. R. Rehn,  F. Rob,  
 M. Schneider,  N. Sergueev,  S. M. Sharada,  S. Sharma,  D. W. Small,  
 T. Stauch,  T. Stein,  Yu-Chuan Su,  A. J. W. Thom,  A. Tkatchenko,  
 T. Tsuchimochi,  L. Vogt,  O. Vydrov,  M. A. Watson,  J. Wenzel,  
 M. de Wergifosse,  T. A. Wesolowski,  A. White,  J. Witte,  A. Yamada,  
 Jun Yang,  K. Yao,  S. Yeganeh,  S. R. Yost,  Zhi-Qiang You,  A. Zech,  
 Igor Ying Zhang,  Xing Zhang,  Yan Zhao,  Ying Zhu,  B. R. Brooks,  
 G. K. L. Chan,  C. J. Cramer,  M. S. Gordon,  W. J. Hehre,  A. Klamt,  
 M. W. Schmidt,  C. D. Sherrill,  D. G. Truhlar,  A. Aspuru-Guzik,  R. Baer,  
 A. T. Bell,  N. A. Besley,  Jeng-Da Chai,  R. A. DiStasio Jr.,  A. Dreuw,  
 B. D. Dunietz,  T. R. Furlani,  Chao-Ping Hsu,  Yousung Jung,  Jing Kong,  
 D. S. Lambrecht,  WanZhen Liang,  C. Ochsenfeld,  V. A. Rassolov,  
 L. V. Slipchenko,  J. E. Subotnik,  T. Van Voorhis,  J. M. Herbert,  
 A. I. Krylov,  P. M. W. Gill,  M. Head-Gordon

 Contributors to earlier versions of Q-Chem not listed above: 
 R. D. Adamson,  B. Austin,  J. Baker,  G. J. O. Beran,  K. Brandhorst,  
 S. T. Brown,  E. F. C. Byrd,  A. K. Chakraborty,  C.-L. Cheng,  
 Siu Hung Chien,  D. M. Chipman,  D. L. Crittenden,  H. Dachsel,  
 R. J. Doerksen,  A. D. Dutoi,  L. Fusti-Molnar,  W. A. Goddard III,  
 A. Golubeva-Zadorozhnaya,  S. R. Gwaltney,  G. Hawkins,  A. Heyden,  
 S. Hirata,  G. Kedziora,  F. J. Keil,  C. Kelley,  Jihan Kim,  R. A. King,  
 R. Z. Khaliullin,  P. P. Korambath,  W. Kurlancheek,  A. M. Lee,  M. S. Lee,  
 S. V. Levchenko,  Ching Yeh Lin,  D. Liotard,  R. C. Lochan,  I. Lotan,  
 P. E. Maslen,  N. Nair,  D. P. O'Neill,  D. Neuhauser,  E. Neuscamman,  
 C. M. Oana,  R. Olson,  B. Peters,  R. Peverati,  P. A. Pieniazek,  
 Y. M. Rhee,  J. Ritchie,  M. A. Rohrdanz,  E. Rosta,  N. J. Russ,  
 H. F. Schaefer III,  N. E. Schultz,  N. Shenvi,  A. C. Simmonett,  A. Sodt,  
 D. Stuck,  K. S. Thanthiriwatte,  V. Vanovschi,  Tao Wang,  A. Warshel,  
 C. F. Williams,  Q. Wu,  X. Xu,  W. Zhang

 Please cite Q-Chem as follows:
 Y. Shao et al., Mol. Phys. 113, 184-215 (2015)
 DOI: 10.1080/00268976.2014.952696

 Q-Chem 5.0.2 for Intel X86 EM64T Linux

 Parts of Q-Chem use Armadillo 5.200.1 (Boston Tea Smuggler).
 http://arma.sourceforge.net/

 Q-Chem begins on Thu Jan 25 17:50:49 2018  


Host: 0

     Scratch files written to /home/jcartus/scratch/Benzene-water-complex_mono2.dir//
 Using version located at /usr/local/qchem/bin/qchem

 Parallel job on  1  processors

Total Memory Limit in MB = 2000
Mega-Array Size in MB = 192

Checking the input file for inconsistencies... 	...done.
Finally everything over in PARseQInput

--------------------------------------------------------------
User input:
--------------------------------------------------------------
$rem
SCF_PRINT                     1
BASIS                         6-311++g**
SCF_SAVE_MATRICES             1
SCF_CONVERGENCE               5
SCF_FINAL_PRINT               1
METHOD                        hf
JOBTYPE                       sp
$end

$molecule
0 1
C    0.7806117    -0.6098875    -1.2075426
C    0.4784039    0.7510406    -1.207904
C    0.3276592    1.4318573    0.0
C    0.4784039    0.7510406    1.207904
C    0.7806117    -0.6098875    1.2075426
C    0.932151    -1.2899614    0.0
H    0.8966688    -1.1376051    -2.1441482
H    0.3573895    1.2782091    -2.1440546
H    0.0918593    2.4871407    0.0
H    0.3573895    1.2782091    2.1440546
H    0.8966688    -1.1376051    2.1441482
H    1.1690064    -2.3451668    0.0
$end


--------------------------------------------------------------
 I,J,IOp=           1           5           2  D=   5.6826716151865485E-013 Fix sym
 I,J,IOp=           2           4           2  D=   5.6842938268272547E-013 Fix sym
 I, IOp=           3           2  D=   5.6799009939823009E-013 Fix sym
 I, IOp=           6           2  D=   5.6843418860808015E-013 Fix sym
 I,J,IOp=           7          11           2  D=   1.0075229497911840E-012 Fix sym
 I,J,IOp=           8          10           2  D=   1.0078490041654685E-012 Fix sym
 I, IOp=           9           2  D=   1.0089706847793423E-012 Fix sym
 I, IOp=          12           2  D=   1.0080825063596421E-012 Fix sym
 ----------------------------------------------------------------
             Standard Nuclear Orientation (Angstroms)
    I     Atom           X                Y                Z
 ----------------------------------------------------------------
    1      C       0.0001720422    -0.6971533879     1.2075426000
    2      C      -0.0002820865     0.6969250322     1.2079040000
    3      C      -0.0009363434     1.3942305001     0.0000000000
    4      C      -0.0002820865     0.6969250322    -1.2079040000
    5      C       0.0001720422    -0.6971533879    -1.2075426000
    6      C      -0.0001106097    -1.3939062774    -0.0000000000
    7      H       0.0014491471    -1.2374805896     2.1441482000
    8      H       0.0033990847     1.2377924479     2.1440546000
    9      H       0.0001401979     2.4755368805     0.0000000000
   10      H       0.0033990847     1.2377924479    -2.1440546000
   11      H       0.0014491471    -1.2374805896    -2.1441482000
   12      H      -0.0022344108    -2.4753656646    -0.0000000000
 ----------------------------------------------------------------
 Molecular Point Group                 Cs    NOp =  2
 Largest Abelian Subgroup              Cs    NOp =  2
 Nuclear Repulsion Energy =   203.6337168794 hartrees
 There are       21 alpha and       21 beta electrons
 Requested basis set is 6-311++G(d,p)
 There are 66 shells and 174 basis functions

 Total QAlloc Memory Limit   2000 MB
 Mega-Array Size       188 MB
 MEM_STATIC part       192 MB

finished with qalloc call

                       Distance Matrix (Angstroms)
             C (  1)   C (  2)   C (  3)   C (  4)   C (  5)   C (  6)
   C (  2)  1.394079
   C (  3)  2.414963  1.394728
   C (  4)  2.788877  2.415808  1.394728
   C (  5)  2.415085  2.788877  2.414963  1.394079
   C (  6)  1.394139  2.414665  2.788137  2.414665  1.394139
   H (  7)  1.081289  2.149065  3.394596  3.870166  3.394965  2.149847
   H (  8)  2.149670  1.081170  2.149759  3.395317  3.870043  3.394528
   H (  9)  3.394720  2.149998  1.081307  2.149998  3.394720  3.869443
   H ( 10)  3.870043  3.395317  2.149759  1.081170  2.149670  3.394528
   H ( 11)  3.394965  3.870166  3.394596  2.149065  1.081289  2.149847
   H ( 12)  2.149466  3.394476  3.869596  3.394476  2.149466  1.081461
             H (  7)   H (  8)   H (  9)   H ( 10)   H ( 11)
   H (  8)  2.475274
   H (  9)  4.287642  2.475680
   H ( 10)  4.951329  4.288109  2.475680
   H ( 11)  4.288296  4.951329  4.287642  2.475274
   H ( 12)  2.475832  4.287720  4.950903  4.287720  2.475832

 Job number = 2, Threshold = 1.00E-08
Integral type ranges set in mkLRange.C for JobNum: 2  <1-21|1-21>
Symmetry turned off temporarily
 Using the largest function pair in Schwarz integrals
Total number of integrals generated =          233997
Symmetry turned back on
 A cutoff of  1.0D-08 yielded   2055 shell pairs
 There are     14694 function pairs (     15765 Cartesian)
 Job number = 11, Threshold = 1.00E-08
Integral type ranges set in mkLRange.C for JobNum: 11  <1-21|22-22>
Total number of integrals generated =          106440
 Smallest overlap matrix eigenvalue = 1.07E-06

 Q-Chem warning in module /usr/local/qchem/stvman/mkSTV.C, line 295:

 Overlap eigenvalue is smaller than square root of threshold

 Multipole matrices computed through 2nd order

 Scale SEOQF with 1.000000e-01/1.000000e-01/1.000000e-01

 Standard Electronic Orientation quadrupole field applied
 Nucleus-field energy     =    -0.0000000019 hartrees
 ENuRep (before)= 203.6337168794
 ENucField = -0.0000000019
 ENuRep (after) = 203.6337168775
 Guess from superposition of atomic densities
 Warning:  Energy on first SCF cycle will be non-variational
 SAD guess density has 42.000000 electrons

 ==================================================
    GEN_SCFMAN: A general SCF calculation manager  
                                                   
    Authors:                                       
        -- Eric Jon Sundstrom 2008-2014            
        -- Paul Horn 2010-2015                     
        -- Yuezhi Mao 2012-                        
        -- Dmitri Zuev 2014                        
        -- Alec White 2015-                        
        -- David Stuck 2015                        
        -- Shaama M.S. 2015                        
        -- Shane Yost 2015-                         
        -- Joonho Lee 2016-                        
        -- David Small 2016-                       
        -- Daniel Levine 2016-                     
        -- Susi Lehtola 2017-                      
        -- Hugh Burton 2017-                       
 ==================================================
 Hartree-Fock
Finding J and K together
 Job number = 22, Threshold = 1.00E-08
Integral type ranges set in mkLRange.C for JobNum: 22  <1-21|1-21>
 MakeJK  time:  CPU       2.85 s  wall       2.90 s
 HF Exchange:              -34.14834365289105
 One-Electron:             -709.22645206307777
 Total Coulomb:            306.49255594643944
 Nuclear repulsion:        203.63371687746343
 A restricted SCF calculation will be
 performed using DIIS
 SCF converges when DIIS error is below 1.0e-05
 ---------------------------------------
  Cycle       Energy         DIIS error
 ---------------------------------------
Finding J and K together
 Job number = 22, Threshold = 1.00E-08
Integral type ranges set in mkLRange.C for JobNum: 22  <1-21|1-21>
 MakeJK  time:  CPU       9.94 s  wall       9.96 s
 HF Exchange:              -33.16612437315307
 One-Electron:             -714.02809870707870
 Total Coulomb:            312.86837752131612
 Nuclear repulsion:        203.63371687746343
    1    -233.2485228921      5.18e-02  
Finding J and K together
 Job number = 22, Threshold = 1.00E-08
Integral type ranges set in mkLRange.C for JobNum: 22  <1-21|1-21>
 MakeJK  time:  CPU       9.94 s  wall      10.06 s
 HF Exchange:              -33.21071076099110
 One-Electron:             -713.23937749688207
 Total Coulomb:            312.06501942756694
 Nuclear repulsion:        203.63371687746343
    2    -230.6921286815      3.32e-03  
Finding J and K together
 Job number = 22, Threshold = 1.00E-08
Integral type ranges set in mkLRange.C for JobNum: 22  <1-21|1-21>
 MakeJK  time:  CPU       8.57 s  wall       8.71 s
 HF Exchange:              -33.26586520046481
 One-Electron:             -713.88219193965722
 Total Coulomb:            312.75853777719880
 Nuclear repulsion:        203.63371687746343
    3    -230.7513519528      9.05e-04  
Finding J and K together
 Job number = 22, Threshold = 1.00E-08
Integral type ranges set in mkLRange.C for JobNum: 22  <1-21|1-21>
 MakeJK  time:  CPU       7.83 s  wall       7.92 s
 HF Exchange:              -33.25181182489455
 One-Electron:             -713.59246828351218
 Total Coulomb:            312.45426326811071
 Nuclear repulsion:        203.63371687746343
    4    -230.7558024855      3.47e-04  
Finding J and K together
 Job number = 22, Threshold = 1.00E-08
Integral type ranges set in mkLRange.C for JobNum: 22  <1-21|1-21>
 MakeJK  time:  CPU       6.43 s  wall       6.44 s
 HF Exchange:              -33.25286488382142
 One-Electron:             -713.60448495005858
 Total Coulomb:            312.46732234570919
 Nuclear repulsion:        203.63371687746343
    5    -230.7562999628      3.45e-05  
    6    -230.7563106107      6.40e-06  Convergence criterion met
 ---------------------------------------
 SCF time:   CPU 46.32s  wall 47.00s 
 Total energy in the final basis set =     -230.7563106107
 HF Exchange:              -33.25286488382142
 One-Electron:             -713.60448495005858
 Total Coulomb:            312.46732234570919
 Nuclear repulsion:        203.63371687746343
Wall  1 = 47
Clock 1 = 46.45588684082031
 ==================================================
                  Done GEN_SCFMAN                  
 ==================================================

Symmetry turned off temporarily

 --------------------------------------------------------------
             Orbital Energies (a.u.) and Symmetries
 --------------------------------------------------------------

 Alpha MOs, Restricted
 -- Occupied --                  
-11.238 -11.238 -11.238 -11.237 -11.237 -11.236  -1.152  -1.017
  1 A'    2 A'    1 A"    3 A'    2 A"    4 A'    5 A'    3 A"                 
 -1.017  -0.826  -0.826  -0.712  -0.646  -0.621  -0.590  -0.590
  6 A'    7 A'    4 A"    8 A'    9 A'    5 A"    6 A"   10 A'                 
 -0.502  -0.496  -0.496  -0.337  -0.337
 11 A'    7 A"   12 A'    8 A"   13 A'                                         
 -- Virtual --                   
  0.042   0.049   0.049   0.066   0.066   0.088   0.109   0.109
 14 A'    9 A"   15 A'   10 A"   16 A'   17 A'   18 A'   11 A"                 
  0.129   0.153   0.153   0.158   0.163   0.181   0.181   0.183
 19 A'   12 A"   20 A'   21 A'   13 A"   22 A'   14 A"   15 A"                 
  0.183   0.193   0.209   0.212   0.212   0.216   0.216   0.218
 23 A'   24 A'   25 A'   16 A"   26 A'   27 A'   17 A"   28 A'                 
  0.228   0.228   0.250   0.250   0.289   0.289   0.303   0.333
 18 A"   29 A'   30 A'   19 A"   31 A'   20 A"   21 A"   32 A'                 
  0.335   0.369   0.409   0.409   0.430   0.430   0.441   0.498
 33 A'   34 A'   22 A"   35 A'   36 A'   23 A"   37 A'   38 A'                 
  0.498   0.509   0.509   0.604   0.610   0.715   0.723   0.723
 24 A"   25 A"   39 A'   26 A"   40 A'   41 A'   27 A"   42 A'                 
  0.729   0.751   0.751   0.751   0.758   0.758   0.797   0.820
 43 A'   44 A'   28 A"   29 A"   30 A"   45 A'   46 A'   47 A'                 
  0.820   0.886   0.940   0.940   0.951   0.952   0.976   1.016
 31 A"   48 A'   32 A"   49 A'   50 A'   33 A"   51 A'   34 A"                 
  1.016   1.017   1.059   1.059   1.107   1.122   1.122   1.130
 52 A'   53 A'   54 A'   35 A"   55 A'   36 A"   56 A'   37 A"                 
  1.170   1.219   1.219   1.249   1.324   1.324   1.391   1.391
 57 A'   38 A"   58 A'   39 A"   40 A"   59 A'   41 A"   60 A'                 
  1.524   1.557   1.711   1.786   1.786   1.796   1.826   1.845
 61 A'   62 A'   42 A"   43 A"   63 A'   64 A'   65 A'   66 A'                 
  1.845   1.908   1.908   1.933   1.933   1.992   2.056   2.056
 44 A"   45 A"   67 A'   68 A'   46 A"   69 A'   47 A"   70 A'                 
  2.104   2.104   2.131   2.236   2.237   2.239   2.248   2.248
 48 A"   71 A'   49 A"   50 A"   72 A'   51 A"   52 A"   73 A'                 
  2.298   2.347   2.347   2.380   2.380   2.640   2.663   2.744
 74 A'   75 A'   53 A"   76 A'   54 A"   77 A'   55 A"   78 A'                 
  2.744   2.747   2.817   2.817   2.963   2.963   2.988   2.995
 56 A"   79 A'   80 A'   57 A"   58 A"   81 A'   82 A'   83 A'                 
  3.022   3.022   3.045   3.045   3.058   3.088   3.192   3.192
 59 A"   84 A'   60 A"   85 A'   86 A'   87 A'   61 A"   88 A'                 
  3.267   3.293   3.293   3.330   3.330   3.482   3.548   3.776
 62 A"   89 A'   63 A"   90 A'   64 A"   91 A'   65 A"   66 A"                 
  3.776   3.907   3.908   3.921   4.081   4.410   4.411   4.501
 92 A'   93 A'   67 A"   94 A'   95 A'   96 A'   68 A"   97 A'                 
  4.576   4.576   5.278  24.753  25.138  25.139  25.259  25.260
 98 A'   69 A"   70 A"   99 A'   71 A"  100 A'  101 A'   72 A"                 
 25.371
102 A'                                                                         

 Beta MOs, Restricted
 -- Occupied --                  
-11.238 -11.238 -11.238 -11.237 -11.237 -11.236  -1.152  -1.017
  1 A'    2 A'    1 A"    3 A'    2 A"    4 A'    5 A'    3 A"                 
 -1.017  -0.826  -0.826  -0.712  -0.646  -0.621  -0.590  -0.590
  6 A'    7 A'    4 A"    8 A'    9 A'    5 A"    6 A"   10 A'                 
 -0.502  -0.496  -0.496  -0.337  -0.337
 11 A'    7 A"   12 A'    8 A"   13 A'                                         
 -- Virtual --                   
  0.042   0.049   0.049   0.066   0.066   0.088   0.109   0.109
 14 A'    9 A"   15 A'   10 A"   16 A'   17 A'   18 A'   11 A"                 
  0.129   0.153   0.153   0.158   0.163   0.181   0.181   0.183
 19 A'   12 A"   20 A'   21 A'   13 A"   22 A'   14 A"   15 A"                 
  0.183   0.193   0.209   0.212   0.212   0.216   0.216   0.218
 23 A'   24 A'   25 A'   16 A"   26 A'   27 A'   17 A"   28 A'                 
  0.228   0.228   0.250   0.250   0.289   0.289   0.303   0.333
 18 A"   29 A'   30 A'   19 A"   31 A'   20 A"   21 A"   32 A'                 
  0.335   0.369   0.409   0.409   0.430   0.430   0.441   0.498
 33 A'   34 A'   22 A"   35 A'   36 A'   23 A"   37 A'   38 A'                 
  0.498   0.509   0.509   0.604   0.610   0.715   0.723   0.723
 24 A"   25 A"   39 A'   26 A"   40 A'   41 A'   27 A"   42 A'                 
  0.729   0.751   0.751   0.751   0.758   0.758   0.797   0.820
 43 A'   44 A'   28 A"   29 A"   30 A"   45 A'   46 A'   47 A'                 
  0.820   0.886   0.940   0.940   0.951   0.952   0.976   1.016
 31 A"   48 A'   32 A"   49 A'   50 A'   33 A"   51 A'   34 A"                 
  1.016   1.017   1.059   1.059   1.107   1.122   1.122   1.130
 52 A'   53 A'   54 A'   35 A"   55 A'   36 A"   56 A'   37 A"                 
  1.170   1.219   1.219   1.249   1.324   1.324   1.391   1.391
 57 A'   38 A"   58 A'   39 A"   40 A"   59 A'   41 A"   60 A'                 
  1.524   1.557   1.711   1.786   1.786   1.796   1.826   1.845
 61 A'   62 A'   42 A"   43 A"   63 A'   64 A'   65 A'   66 A'                 
  1.845   1.908   1.908   1.933   1.933   1.992   2.056   2.056
 44 A"   45 A"   67 A'   68 A'   46 A"   69 A'   47 A"   70 A'                 
  2.104   2.104   2.131   2.236   2.237   2.239   2.248   2.248
 48 A"   71 A'   49 A"   50 A"   72 A'   51 A"   52 A"   73 A'                 
  2.298   2.347   2.347   2.380   2.380   2.640   2.663   2.744
 74 A'   75 A'   53 A"   76 A'   54 A"   77 A'   55 A"   78 A'                 
  2.744   2.747   2.817   2.817   2.963   2.963   2.988   2.995
 56 A"   79 A'   80 A'   57 A"   58 A"   81 A'   82 A'   83 A'                 
  3.022   3.022   3.045   3.045   3.058   3.088   3.192   3.192
 59 A"   84 A'   60 A"   85 A'   86 A'   87 A'   61 A"   88 A'                 
  3.267   3.293   3.293   3.330   3.330   3.482   3.548   3.776
 62 A"   89 A'   63 A"   90 A'   64 A"   91 A'   65 A"   66 A"                 
  3.776   3.907   3.908   3.921   4.081   4.410   4.411   4.501
 92 A'   93 A'   67 A"   94 A'   95 A'   96 A'   68 A"   97 A'                 
  4.576   4.576   5.278  24.753  25.138  25.139  25.259  25.260
 98 A'   69 A"   70 A"   99 A'   71 A"  100 A'  101 A'   72 A"                 
 25.371
102 A'                                                                         
 --------------------------------------------------------------

          Ground-State Mulliken Net Atomic Charges

     Atom                 Charge (a.u.)
  ----------------------------------------
      1 C                    -0.192622
      2 C                    -0.192980
      3 C                    -0.191807
      4 C                    -0.192980
      5 C                    -0.192622
      6 C                    -0.192624
      7 H                     0.192598
      8 H                     0.192585
      9 H                     0.192642
     10 H                     0.192585
     11 H                     0.192598
     12 H                     0.192627
  ----------------------------------------
  Sum of atomic charges =    -0.000000

 -----------------------------------------------------------------
                    Cartesian Multipole Moments
 -----------------------------------------------------------------
    Charge (ESU x 10^10)
                -0.0000
    Dipole Moment (Debye)
         X       0.0066      Y       0.0004      Z       0.0000
       Tot       0.0066
    Quadrupole Moments (Debye-Ang)
        XX     -41.3119     XY       0.0130     YY     -31.9210
        XZ      -0.0000     YZ      -0.0000     ZZ     -31.9113
    Octopole Moments (Debye-Ang^2)
       XXX       0.0123    XXY      -0.0036    XYY       0.0072
       YYY       0.0078    XXZ       0.0000    XYZ      -0.0000
       YYZ       0.0000    XZZ       0.0542    YZZ       0.0033
       ZZZ       0.0000
    Hexadecapole Moments (Debye-Ang^3)
      XXXX     -52.1758   XXXY       0.0202   XXYY     -66.0804
      XYYY       0.0777   YYYY    -270.4574   XXXZ      -0.0000
      XXYZ      -0.0000   XYYZ       0.0000   YYYZ      -0.0000
      XXZZ     -66.0991   XYZZ       0.0362   YYZZ     -90.1646
      XZZZ       0.0000   YZZZ      -0.0000   ZZZZ    -270.5190
 -----------------------------------------------------------------
 Mayer SCF Bond Order, atomic valence on the diagonal:

            1           2           3           4           5           6
    1   4.4319152   1.8293505  -0.0971099   0.0480215  -0.0966515   1.8301857
    2   1.8293505   4.4317222   1.8294550  -0.0959185   0.0480215  -0.0968962
    3  -0.0971099   1.8294550   4.4317137   1.8294550  -0.0971099   0.0488054
    4   0.0480215  -0.0959185   1.8294550   4.4317222   1.8293505  -0.0968962
    5  -0.0966515   0.0480215  -0.0971099   1.8293505   4.4319152   1.8301857
    6   1.8301857  -0.0968962   0.0488054  -0.0968962   1.8301857   4.4334836
    7   0.7788530   0.0908297  -0.0264342   0.0101417  -0.0264967   0.0911374
    8   0.0909686   0.7790105   0.0908520  -0.0264537   0.0101588  -0.0264849
    9  -0.0264754   0.0907352   0.7791803   0.0907352  -0.0264754   0.0101638
   10   0.0101588  -0.0264537   0.0908520   0.7790105   0.0909686  -0.0264849
   11  -0.0264967   0.0101417  -0.0264342   0.0908297   0.7788530   0.0911374
   12   0.0911106  -0.0265536   0.0102022  -0.0265536   0.0911106   0.7786303
            7           8           9          10          11          12
    1   0.7788530   0.0909686  -0.0264754   0.0101588  -0.0264967   0.0911106
    2   0.0908297   0.7790105   0.0907352  -0.0264537   0.0101417  -0.0265536
    3  -0.0264342   0.0908520   0.7791803   0.0908520  -0.0264342   0.0102022
    4   0.0101417  -0.0264537   0.0907352   0.7790105   0.0908297  -0.0265536
    5  -0.0264967   0.0101588  -0.0264754   0.0909686   0.7788530   0.0911106
    6   0.0911374  -0.0264849   0.0101638  -0.0264849   0.0911374   0.7786303
    7   0.9408514   0.0107929   0.0006076  -0.0000002   0.0006058   0.0108144
    8   0.0107929   0.9408606   0.0108057   0.0006038  -0.0000002   0.0006072
    9   0.0006076   0.0108057   0.9406893   0.0108057   0.0006076  -0.0000010
   10  -0.0000002   0.0006038   0.0108057   0.9408606   0.0107929   0.0006072
   11   0.0006058  -0.0000002   0.0006076   0.0107929   0.9408514   0.0108144
   12   0.0108144   0.0006072  -0.0000010   0.0006072   0.0108144   0.9407889


 JobOver = TRUE
Archival summary:
1\1\qciep03\SP\HF\BasisUnspecified\66\jcartus\ThuJan2517:51:372018ThuJan2517:51:372018\0\\#,HF,BasisUnspecified,\\0,1\C\H,1,1.08146\C,1,1.39414,2,119.985\H,3,1.08129,1,120.034,2,-0.194655,0\C,3,1.39408,1,120,2,179.849,0\H,5,1.08117,3,120.032,1,179.788,0\C,1,1.39414,2,119.985,3,179.897,0\H,7,1.08129,1,120.034,2,0.194655,0\C,7,1.39408,1,120,2,-179.849,0\H,9,1.08117,7,120.032,1,-179.788,0\C,5,1.39473,3,119.982,1,0.00392801,0\H,11,1.08131,5,119.997,3,179.913,0\\HF=-230.756311\\@

 Total job time:  47.71s(wall), 47.16s(cpu) 
 Thu Jan 25 17:51:37 2018

        *************************************************************
        *                                                           *
        *  Thank you very much for using Q-Chem.  Have a nice day.  *
        *                                                           *
        *************************************************************


*** MISSION COMPLETED -- STARFLEET OUT ***

0 sent ACK to 0 
now end server 0 ... 
