Process 0 of 1 is on qciep03 - thread support 0
initial socket setup ...start
initial socket setup ...done 
now start server 0 ... 
qciep03.tugraz.at 127.0.1
Q-Chem Developer Version! Running on 127.0.1.*
                  Welcome to Q-Chem
     A Quantum Leap Into The Future Of Chemistry


 Q-Chem 5.0, Q-Chem, Inc., Pleasanton, CA (2017)

 Yihan Shao,  Zhengting Gan,  E. Epifanovsky,  A. T. B. Gilbert,  M. Wormit,  
 J. Kussmann,  A. W. Lange,  A. Behn,  Jia Deng,  Xintian Feng,  D. Ghosh,  
 M. Goldey,  P. R. Horn,  L. D. Jacobson,  I. Kaliman,  T. Kus,  A. Landau,  
 Jie Liu,  E. I. Proynov,  R. M. Richard,  R. P. Steele,  E. J. Sundstrom,  
 H. L. Woodcock III,  P. M. Zimmerman,  D. Zuev,  B. Albrecht,  E. Alguire,  
 S. A. Baeppler,  D. Barton,  Z. Benda,  Y. A. Bernard,  E. J. Berquist,  
 K. B. Bravaya,  H. Burton,  D. Casanova,  Chun-Min Chang,  Yunqing Chen,  
 A. Chien,  K. D. Closser,  M. P. Coons,  S. Dasgupta,  A. L. Dempwolff,  
 M. Diedenhofen,  Hainam Do,  R. G. Edgar,  Po-Tung Fang,  S. Fatehi,  
 Qingguo Feng,  J. Fosso-Tande,  Qinghui Ge,  A. Ghysels,  G. Gidofalvi,  
 J. Gomes,  J. Gonthier,  A. Gunina,  M. W. D. Hanson-Heine,  
 P. H. P. Harbach,  A. W. Hauser,  J. E. Herr,  E. G. Hohenstein,  
 Z. C. Holden,  Kerwin Hui,  T.-C. Jagau,  Hyunjun Ji,  B. Kaduk,  
 K. Khistyaev,  Jaehoon Kim,  P. Klunzinger,  K. Koh,  D. Kosenkov,  
 L. Koulias,  T. Kowalczyk,  C. M. Krauter,  A. Kunitsa,  Ka Un Lao,  
 A. Laurent,  K. V. Lawler,  Joonho Lee,  D. Lefrancois,  S. Lehtola,  
 D. S. Levine,  Yi-Pei Li,  You-Sheng Lin,  Fenglai Liu,  E. Livshits,  
 A. Luenser,  P. Manohar,  E. Mansoor,  S. F. Manzer,  Shan-Ping Mao,  
 Yuezhi Mao,  N. Mardirossian,  A. V. Marenich,  T. Markovich,  
 L. A. Martinez-Martinez,  S. A. Maurer,  N. J. Mayhall,  S. C. McKenzie,  
 J.-M. Mewes,  A. F. Morrison,  J. W. Mullinax,  K. Nanda,  
 T. S. Nguyen-Beck,  R. Olivares-Amaya,  J. A. Parkhill,  T. M. Perrine,  
 F. Plasser,  S. Prager,  A. Prociuk,  E. Ramos,  D. R. Rehn,  F. Rob,  
 M. Schneider,  N. Sergueev,  S. M. Sharada,  S. Sharma,  D. W. Small,  
 T. Stauch,  T. Stein,  Yu-Chuan Su,  A. J. W. Thom,  A. Tkatchenko,  
 T. Tsuchimochi,  L. Vogt,  O. Vydrov,  M. A. Watson,  J. Wenzel,  
 M. de Wergifosse,  T. A. Wesolowski,  A. White,  J. Witte,  A. Yamada,  
 Jun Yang,  K. Yao,  S. Yeganeh,  S. R. Yost,  Zhi-Qiang You,  A. Zech,  
 Igor Ying Zhang,  Xing Zhang,  Yan Zhao,  Ying Zhu,  B. R. Brooks,  
 G. K. L. Chan,  C. J. Cramer,  M. S. Gordon,  W. J. Hehre,  A. Klamt,  
 M. W. Schmidt,  C. D. Sherrill,  D. G. Truhlar,  A. Aspuru-Guzik,  R. Baer,  
 A. T. Bell,  N. A. Besley,  Jeng-Da Chai,  R. A. DiStasio Jr.,  A. Dreuw,  
 B. D. Dunietz,  T. R. Furlani,  Chao-Ping Hsu,  Yousung Jung,  Jing Kong,  
 D. S. Lambrecht,  WanZhen Liang,  C. Ochsenfeld,  V. A. Rassolov,  
 L. V. Slipchenko,  J. E. Subotnik,  T. Van Voorhis,  J. M. Herbert,  
 A. I. Krylov,  P. M. W. Gill,  M. Head-Gordon

 Contributors to earlier versions of Q-Chem not listed above: 
 R. D. Adamson,  B. Austin,  J. Baker,  G. J. O. Beran,  K. Brandhorst,  
 S. T. Brown,  E. F. C. Byrd,  A. K. Chakraborty,  C.-L. Cheng,  
 Siu Hung Chien,  D. M. Chipman,  D. L. Crittenden,  H. Dachsel,  
 R. J. Doerksen,  A. D. Dutoi,  L. Fusti-Molnar,  W. A. Goddard III,  
 A. Golubeva-Zadorozhnaya,  S. R. Gwaltney,  G. Hawkins,  A. Heyden,  
 S. Hirata,  G. Kedziora,  F. J. Keil,  C. Kelley,  Jihan Kim,  R. A. King,  
 R. Z. Khaliullin,  P. P. Korambath,  W. Kurlancheek,  A. M. Lee,  M. S. Lee,  
 S. V. Levchenko,  Ching Yeh Lin,  D. Liotard,  R. C. Lochan,  I. Lotan,  
 P. E. Maslen,  N. Nair,  D. P. O'Neill,  D. Neuhauser,  E. Neuscamman,  
 C. M. Oana,  R. Olson,  B. Peters,  R. Peverati,  P. A. Pieniazek,  
 Y. M. Rhee,  J. Ritchie,  M. A. Rohrdanz,  E. Rosta,  N. J. Russ,  
 H. F. Schaefer III,  N. E. Schultz,  N. Shenvi,  A. C. Simmonett,  A. Sodt,  
 D. Stuck,  K. S. Thanthiriwatte,  V. Vanovschi,  Tao Wang,  A. Warshel,  
 C. F. Williams,  Q. Wu,  X. Xu,  W. Zhang

 Please cite Q-Chem as follows:
 Y. Shao et al., Mol. Phys. 113, 184-215 (2015)
 DOI: 10.1080/00268976.2014.952696

 Q-Chem 5.0.2 for Intel X86 EM64T Linux

 Parts of Q-Chem use Armadillo 5.200.1 (Boston Tea Smuggler).
 http://arma.sourceforge.net/

 Q-Chem begins on Thu Jan 25 17:20:49 2018  


Host: 0

     Scratch files written to /home/jcartus/scratch/Adenine-thymine-complex-stack_mono2.dir//
 Using version located at /usr/local/qchem/bin/qchem

 Parallel job on  1  processors

Total Memory Limit in MB = 2000
Mega-Array Size in MB = 192

Checking the input file for inconsistencies... 	...done.
Finally everything over in PARseQInput

--------------------------------------------------------------
User input:
--------------------------------------------------------------
$rem
SCF_PRINT                     1
BASIS                         6-311++g**
SCF_SAVE_MATRICES             1
SCF_CONVERGENCE               5
SCF_FINAL_PRINT               1
METHOD                        hf
JOBTYPE                       sp
$end

$molecule
0 1
N    0.9350155    -0.0279801    -0.3788916
C    1.6739638    -0.0357766    0.7424316
C    3.0747955    -0.009448    0.5994562
C    3.5646109    0.0195446    -0.7059872
N    2.853151    0.0258031    -1.8409596
C    1.549076    0.0012569    -1.5808009
N    4.0885824    -0.0054429    1.5289786
C    5.1829921    0.0253971    0.7872176
N    4.9294871    0.0412404    -0.5567274
N    1.0716177    -0.0765366    1.939139
H    0.8794435    0.005026    -2.4315709
H    6.1882591    0.0375542    1.1738824
H    5.6035368    0.0648755    -1.3036811
H    0.0586915    -0.0423765    2.0039181
H    1.6443796    -0.0347395    2.7619159
$end


--------------------------------------------------------------
 ----------------------------------------------------------------
             Standard Nuclear Orientation (Angstroms)
    I     Atom           X                Y                Z
 ----------------------------------------------------------------
    1      N       1.9299812303    -0.5353221928     0.0015415664
    2      C       1.2317666120     0.6118312586    -0.0009882494
    3      C      -0.1735209723     0.5189260511    -0.0007884155
    4      C      -0.7100400433    -0.7683538088    -0.0009154901
    5      N      -0.0397520653    -1.9281342359    -0.0006083942
    6      C       1.2730054680    -1.7146837957     0.0011913424
    7      N      -1.1534081030     1.4841258530     0.0007494267
    8      C      -2.2739617659     0.7818065462     0.0011471410
    9      N      -2.0688914213    -0.5704687936    -0.0000847586
   10      N       1.8770542284     1.7865923196    -0.0124400896
   11      H       1.9116840009    -2.5889369412     0.0028202244
   12      H      -3.2648496382     1.2041322528     0.0023412587
   13      H      -2.7694764118    -1.2929797245     0.0001831916
   14      H       2.8908895713     1.8143821213     0.0399846691
   15      H       1.3333696027     2.6286941324     0.0326884318
 ----------------------------------------------------------------
 Molecular Point Group                 C1    NOp =  1
 Largest Abelian Subgroup              C1    NOp =  1
 Nuclear Repulsion Energy =   503.3963088880 hartrees
 There are       35 alpha and       35 beta electrons
 Requested basis set is 6-311++G(d,p)
 There are 85 shells and 255 basis functions

 Total QAlloc Memory Limit   2000 MB
 Mega-Array Size       188 MB
 MEM_STATIC part       192 MB

finished with qalloc call

                       Distance Matrix (Angstroms)
             N (  1)   C (  2)   C (  3)   C (  4)   N (  5)   C (  6)
   C (  2)  1.342934
   C (  3)  2.352906  1.408355
   C (  4)  2.650287  2.382336  1.394612
   N (  5)  2.412422  2.840455  2.450714  1.339543
   C (  6)  1.350004  2.326882  2.661100  2.197274  1.329999
   N (  7)  3.685846  2.539677  1.375424  2.295701  3.589394  4.014955
   C (  8)  4.405447  3.509847  2.116828  2.202011  3.512190  4.337446
   N (  9)  3.999027  3.506020  2.186141  1.373185  2.441447  3.532351
   N ( 10)  2.322560  1.340370  2.410803  3.636061  4.180129  3.553026
   H ( 11)  2.053697  3.272189  3.742580  3.191861  2.060285  1.082696
   H ( 12)  5.478318  4.535459  3.166359  3.227656  4.495815  5.395518
   H ( 13)  4.760142  4.431507  3.165752  2.125209  2.802645  4.064418
   H ( 14)  2.538884  2.049511  3.327233  4.431579  4.753603  3.882443
   H ( 15)  3.219925  2.019701  2.592867  3.964415  4.759334  4.343912
             N (  7)   C (  8)   N (  9)   N ( 10)   H ( 11)   H ( 12)
   C (  8)  1.322457
   N (  9)  2.249326  1.367737
   N ( 10)  3.045548  4.270915  4.596344
   H ( 11)  5.097513  5.374155  4.463093  4.375693
   H ( 12)  2.129926  1.077135  2.139984  5.174810  6.417466
   H ( 13)  3.213097  2.133137  1.006400  5.574421  4.857239  2.545774
   H ( 14)  4.057949  5.267201  5.503503  1.015570  4.511036  6.186028
   H ( 15)  2.737722  4.052756  4.670235  1.003377  5.249668  4.813930
             H ( 13)   H ( 14)
   H ( 14)  6.457323
   H ( 15)  5.675731  1.757562

 Job number = 2, Threshold = 1.00E-08
Integral type ranges set in mkLRange.C for JobNum: 2  <1-21|1-21>
Symmetry turned off temporarily
 Using the largest function pair in Schwarz integrals
Total number of integrals generated =          516679
Symmetry turned back on
 A cutoff of  1.0D-08 yielded   3033 shell pairs
 There are     28629 function pairs (     30853 Cartesian)
 Job number = 11, Threshold = 1.00E-08
Integral type ranges set in mkLRange.C for JobNum: 11  <1-21|22-22>
Total number of integrals generated =          462795
 Smallest overlap matrix eigenvalue = 3.30E-06

 Q-Chem warning in module /usr/local/qchem/stvman/mkSTV.C, line 295:

 Overlap eigenvalue is smaller than square root of threshold

 Multipole matrices computed through 2nd order

 Scale SEOQF with 1.000000e-01/1.000000e-01/1.000000e-01

 Standard Electronic Orientation quadrupole field applied
 Nucleus-field energy     =     0.0000000146 hartrees
 ENuRep (before)= 503.3963088880
 ENucField = 0.0000000146
 ENuRep (after) = 503.3963089026
 Guess from superposition of atomic densities
 Warning:  Energy on first SCF cycle will be non-variational
 SAD guess density has 70.000000 electrons

 ==================================================
    GEN_SCFMAN: A general SCF calculation manager  
                                                   
    Authors:                                       
        -- Eric Jon Sundstrom 2008-2014            
        -- Paul Horn 2010-2015                     
        -- Yuezhi Mao 2012-                        
        -- Dmitri Zuev 2014                        
        -- Alec White 2015-                        
        -- David Stuck 2015                        
        -- Shaama M.S. 2015                        
        -- Shane Yost 2015-                         
        -- Joonho Lee 2016-                        
        -- David Small 2016-                       
        -- Daniel Levine 2016-                     
        -- Susi Lehtola 2017-                      
        -- Hugh Burton 2017-                       
 ==================================================
 Hartree-Fock
Finding J and K together
 Job number = 22, Threshold = 1.00E-08
Integral type ranges set in mkLRange.C for JobNum: 22  <1-21|1-21>
 MakeJK  time:  CPU       6.86 s  wall       6.88 s
 HF Exchange:              -62.31563966524472
 One-Electron:             -1625.71331962601403
 Total Coulomb:            715.56877223934521
 Nuclear repulsion:        503.39630890259485
 A restricted SCF calculation will be
 performed using DIIS
 SCF converges when DIIS error is below 1.0e-05
 ---------------------------------------
  Cycle       Energy         DIIS error
 ---------------------------------------
Finding J and K together
 Job number = 22, Threshold = 1.00E-08
Integral type ranges set in mkLRange.C for JobNum: 22  <1-21|1-21>
 MakeJK  time:  CPU      37.12 s  wall      37.65 s
 HF Exchange:              -60.75409040078301
 One-Electron:             -1628.54603552113417
 Total Coulomb:            721.42058575276621
 Nuclear repulsion:        503.39630890259485
    1    -469.0638781493      4.76e-02  
Finding J and K together
 Job number = 22, Threshold = 1.00E-08
Integral type ranges set in mkLRange.C for JobNum: 22  <1-21|1-21>
 MakeJK  time:  CPU      45.55 s  wall      45.76 s
 HF Exchange:              -60.78558161953644
 One-Electron:             -1629.54122603240967
 Total Coulomb:            722.32700196382734
 Nuclear repulsion:        503.39630890259485
    2    -464.4832312666      3.88e-03  
Finding J and K together
 Job number = 22, Threshold = 1.00E-08
Integral type ranges set in mkLRange.C for JobNum: 22  <1-21|1-21>
 MakeJK  time:  CPU      48.24 s  wall      48.37 s
 HF Exchange:              -60.86293926318024
 One-Electron:             -1629.40499687592114
 Total Coulomb:            722.24225464716483
 Nuclear repulsion:        503.39630890259485
    3    -464.6034967855      1.98e-03  
Finding J and K together
 Job number = 22, Threshold = 1.00E-08
Integral type ranges set in mkLRange.C for JobNum: 22  <1-21|1-21>
 MakeJK  time:  CPU      48.60 s  wall      48.71 s
 HF Exchange:              -60.86195142558419
 One-Electron:             -1629.33316133262133
 Total Coulomb:            722.16586844813185
 Nuclear repulsion:        503.39630890259485
    4    -464.6293725893      6.11e-04  
Finding J and K together
 Job number = 22, Threshold = 1.00E-08
Integral type ranges set in mkLRange.C for JobNum: 22  <1-21|1-21>
 MakeJK  time:  CPU      48.87 s  wall      48.94 s
 HF Exchange:              -60.86233097992984
 One-Electron:             -1629.35938245551415
 Total Coulomb:            722.19218497603867
 Nuclear repulsion:        503.39630890259485
    5    -464.6329354075      1.76e-04  
Finding J and K together
 Job number = 22, Threshold = 1.00E-08
Integral type ranges set in mkLRange.C for JobNum: 22  <1-21|1-21>
 MakeJK  time:  CPU      48.52 s  wall      48.69 s
 HF Exchange:              -60.86458523890224
 One-Electron:             -1629.35970294672234
 Total Coulomb:            722.19470894770825
 Nuclear repulsion:        503.39630890259485
    6    -464.6332195568      5.44e-05  
Finding J and K together
 Job number = 22, Threshold = 1.00E-08
Integral type ranges set in mkLRange.C for JobNum: 22  <1-21|1-21>
 MakeJK  time:  CPU      50.34 s  wall      50.51 s
 HF Exchange:              -60.86466073178843
 One-Electron:             -1629.35833150795247
 Total Coulomb:            722.19340129218006
 Nuclear repulsion:        503.39630890259485
    7    -464.6332703353      2.32e-05  
Finding J and K together
 Job number = 22, Threshold = 1.00E-08
Integral type ranges set in mkLRange.C for JobNum: 22  <1-21|1-21>
 MakeJK  time:  CPU      50.82 s  wall      50.93 s
 HF Exchange:              -60.86476744533573
 One-Electron:             -1629.35643028536265
 Total Coulomb:            722.19160427520649
 Nuclear repulsion:        503.39630890259485
    8    -464.6332820450      1.08e-05  
    9    -464.6332845529      3.39e-06  Convergence criterion met
 ---------------------------------------
 SCF time:   CPU 388.57s  wall 390.00s 
 Total energy in the final basis set =     -464.6332845529
 HF Exchange:              -60.86476744533573
 One-Electron:             -1629.35643028536265
 Total Coulomb:            722.19160427520649
 Nuclear repulsion:        503.39630890259485
Wall  1 = 391
Clock 1 = 388.97106933593750
 ==================================================
                  Done GEN_SCFMAN                  
 ==================================================

Symmetry turned off temporarily

 --------------------------------------------------------------

                    Orbital Energies (a.u.)
 --------------------------------------------------------------

 Alpha MOs
 -- Occupied --
-15.636 -15.588 -15.572 -15.560 -15.550 -11.342 -11.328 -11.321
-11.313 -11.256  -1.375  -1.304  -1.254  -1.192  -1.155  -1.038
 -0.900  -0.880  -0.852  -0.785  -0.745  -0.704  -0.681  -0.641
 -0.640  -0.617  -0.595  -0.561  -0.500  -0.498  -0.452  -0.426
 -0.410  -0.373  -0.310
 -- Virtual --
  0.033   0.046   0.054   0.063   0.079   0.091   0.100   0.101
  0.117   0.126   0.135   0.140   0.141   0.153   0.155   0.164
  0.166   0.170   0.174   0.192   0.196   0.197   0.206   0.208
  0.213   0.239   0.253   0.256   0.263   0.270   0.282   0.288
  0.299   0.304   0.313   0.318   0.322   0.327   0.337   0.342
  0.345   0.355   0.362   0.381   0.387   0.388   0.392   0.403
  0.409   0.415   0.428   0.442   0.452   0.468   0.494   0.500
  0.519   0.535   0.571   0.598   0.634   0.646   0.672   0.707
  0.728   0.748   0.752   0.755   0.770   0.779   0.791   0.815
  0.841   0.856   0.873   0.904   0.928   0.957   0.976   1.007
  1.012   1.031   1.035   1.052   1.054   1.057   1.085   1.110
  1.111   1.119   1.122   1.125   1.130   1.145   1.154   1.169
  1.185   1.206   1.209   1.233   1.251   1.265   1.300   1.306
  1.320   1.366   1.383   1.403   1.406   1.451   1.466   1.485
  1.527   1.550   1.574   1.646   1.660   1.672   1.733   1.786
  1.803   1.822   1.874   1.885   1.930   1.940   1.984   1.994
  2.011   2.020   2.045   2.069   2.083   2.109   2.134   2.149
  2.195   2.222   2.228   2.294   2.317   2.445   2.468   2.470
  2.487   2.496   2.564   2.588   2.593   2.618   2.651   2.706
  2.733   2.796   2.861   2.881   2.888   2.897   2.936   2.969
  2.989   3.000   3.012   3.066   3.105   3.109   3.134   3.166
  3.189   3.194   3.211   3.225   3.251   3.260   3.265   3.271
  3.307   3.361   3.379   3.388   3.458   3.498   3.685   3.722
  3.791   3.884   3.915   3.949   4.010   4.061   4.095   4.144
  4.186   4.287   4.324   4.349   4.415   4.425   4.432   4.559
  4.841   4.981   5.034   5.183   5.271   5.359   5.498   5.610
  5.758   5.859  24.905  25.062  25.100  25.122  25.242  36.999
 37.046  37.092  37.160  37.185
 --------------------------------------------------------------

          Ground-State Mulliken Net Atomic Charges

     Atom                 Charge (a.u.)
  ----------------------------------------
      1 N                    -0.388232
      2 C                     0.139755
      3 C                     0.050797
      4 C                    -0.163574
      5 N                    -0.295893
      6 C                     0.138574
      7 N                    -0.332971
      8 C                     0.268289
      9 N                    -0.408761
     10 N                    -0.520989
     11 H                     0.244795
     12 H                     0.239782
     13 H                     0.361247
     14 H                     0.353599
     15 H                     0.313582
  ----------------------------------------
  Sum of atomic charges =     0.000000

 -----------------------------------------------------------------
                    Cartesian Multipole Moments
 -----------------------------------------------------------------
    Charge (ESU x 10^10)
                 0.0000
    Dipole Moment (Debye)
         X      -2.3164      Y       1.0922      Z       0.1581
       Tot       2.5659
    Quadrupole Moments (Debye-Ang)
        XX     -43.5800     XY       6.6102     YY     -57.9839
        XZ       0.3772     YZ       0.3926     ZZ     -60.6513
    Octopole Moments (Debye-Ang^2)
       XXX     -44.6985    XXY       6.6020    XYY      20.7258
       YYY      16.6115    XXZ       0.9763    XYZ       0.8484
       YYZ       0.9565    XZZ      -0.6348    YZZ      -0.8923
       ZZZ       0.1051
    Hexadecapole Moments (Debye-Ang^3)
      XXXX    -703.5222   XXXY      66.0117   XXYY    -182.5313
      XYYY      29.9329   YYYY    -611.0279   XXXZ       2.6270
      XXYZ       2.0605   XYYZ       1.9207   YYYZ       2.3329
      XXZZ    -170.4030   XYZZ       1.5827   YYZZ    -123.2907
      XZZZ       0.2945   YZZZ       0.3201   ZZZZ     -64.0313
 -----------------------------------------------------------------
 Mayer SCF Bond Order, atomic valence on the diagonal:

            1           2           3           4           5           6
    1   2.6903697   1.0461803   0.4049178   0.0423635   0.0322235   1.2977474
    2   1.0461803   3.1435775   1.4236737   0.4497835  -0.0632916   0.0375822
    3   0.4049178   1.4236737   4.6865647   0.8231943   0.1143182   0.0741261
    4   0.0423635   0.4497835   0.8231943   3.9719970   1.3951236   0.0910104
    5   0.0322235  -0.0632916   0.1143182   1.3951236   2.7449614   1.2191810
    6   1.2977474   0.0375822   0.0741261   0.0910104   1.2191810   3.7060937
    7   0.0231900  -0.4396628   1.4740746   0.1534568   0.0220704   0.0039112
    8  -0.0062268  -0.0268282   0.0110180  -0.0506239   0.0759628   0.0274009
    9   0.0079784  -0.0280791   0.0022943   1.0412799   0.0205749   0.0096611
   10  -0.0857249   0.8271463   0.1950719  -0.0051750   0.0123863   0.0027312
   11  -0.0705990   0.0133509   0.0097664   0.0327556  -0.0731864   0.9322503
   12  -0.0011449   0.0014490   0.0366581   0.0380039   0.0025963   0.0012937
   13   0.0018183   0.0025984   0.0239535  -0.0342232  -0.0125002   0.0015163
   14  -0.0204954  -0.0831627   0.0702589   0.0024414  -0.0004689   0.0042528
   15   0.0181414  -0.0171624   0.0232389  -0.0073940  -0.0000288   0.0034291
            7           8           9          10          11          12
    1   0.0231900  -0.0062268   0.0079784  -0.0857249  -0.0705990  -0.0011449
    2  -0.4396628  -0.0268282  -0.0280791   0.8271463   0.0133509   0.0014490
    3   1.4740746   0.0110180   0.0022943   0.1950719   0.0097664   0.0366581
    4   0.1534568  -0.0506239   1.0412799  -0.0051750   0.0327556   0.0380039
    5   0.0220704   0.0759628   0.0205749   0.0123863  -0.0731864   0.0025963
    6   0.0039112   0.0274009   0.0096611   0.0027312   0.9322503   0.0012937
    7   2.8401592   1.5410586   0.0844351   0.0053186  -0.0005155  -0.0448142
    8   1.5410586   3.4438954   0.9776073   0.0146381  -0.0030305   0.9043361
    9   0.0844351   0.9776073   2.9429209  -0.0024313   0.0029561  -0.0591905
   10   0.0053186   0.0146381  -0.0024313   2.7401320   0.0032862  -0.0000637
   11  -0.0005155  -0.0030305   0.0029561   0.0032862   0.8474520  -0.0001131
   12  -0.0448142   0.9043361  -0.0591905  -0.0000637  -0.0001131   0.8781473
   13   0.0110007  -0.0235809   0.8858288  -0.0006704   0.0000439  -0.0009820
   14  -0.0000074  -0.0012069   0.0002577   0.8875349   0.0004996   0.0001839
   15   0.0066431   0.0033708  -0.0002518   0.8860838  -0.0000122  -0.0000652
           13          14          15
    1   0.0018183  -0.0204954   0.0181414
    2   0.0025984  -0.0831627  -0.0171624
    3   0.0239535   0.0702589   0.0232389
    4  -0.0342232   0.0024414  -0.0073940
    5  -0.0125002  -0.0004689  -0.0000288
    6   0.0015163   0.0042528   0.0034291
    7   0.0110007  -0.0000074   0.0066431
    8  -0.0235809  -0.0012069   0.0033708
    9   0.8858288   0.0002577  -0.0002518
   10  -0.0006704   0.8875349   0.8860838
   11   0.0000439   0.0004996  -0.0000122
   12  -0.0009820   0.0001839  -0.0000652
   13   0.8547399  -0.0000769   0.0000137
   14  -0.0000769   0.8649097   0.0048987
   15   0.0000137   0.0048987   0.9209049


 JobOver = TRUE
Archival summary:
1\1\qciep03\SP\HF\BasisUnspecified\555\jcartus\ThuJan2517:27:212018ThuJan2517:27:212018\0\\#,HF,BasisUnspecified,\\0,1\C\N,1,1.37542\C,2,1.32246,1,103.355\H,3,1.07713,2,124.838,1,179.996,0\N,3,1.36774,2,113.455,1,-0.00197807,0\H,5,1.0064,3,127.26,2,179.983,0\C,5,1.37318,3,106.909,2,0.0206325,0\N,7,1.33954,5,128.311,3,179.912,0\C,8,1.33,7,110.79,5,-179.868,0\H,9,1.0827,8,116.914,7,179.927,0\N,9,1.35,8,128.356,7,-0.057785,0\C,11,1.34293,9,119.553,8,-0.0453948,0\N,12,1.34037,11,119.893,9,-179.419,0\H,13,1.00338,12,118.315,11,-176.964,0\H,13,1.01557,12,120.275,11,-3.87015,0\\HF=-464.633285\\@

 Total job time:  391.99s(wall), 390.11s(cpu) 
 Thu Jan 25 17:27:21 2018

        *************************************************************
        *                                                           *
        *  Thank you very much for using Q-Chem.  Have a nice day.  *
        *                                                           *
        *************************************************************


*** MISSION COMPLETED -- STARFLEET OUT ***

0 sent ACK to 0 
now end server 0 ... 
