Process 0 of 1 is on qciep03 - thread support 0
initial socket setup ...start
initial socket setup ...done 
now start server 0 ... 
qciep03.tugraz.at 127.0.1
Q-Chem Developer Version! Running on 127.0.1.*
                  Welcome to Q-Chem
     A Quantum Leap Into The Future Of Chemistry


 Q-Chem 5.0, Q-Chem, Inc., Pleasanton, CA (2017)

 Yihan Shao,  Zhengting Gan,  E. Epifanovsky,  A. T. B. Gilbert,  M. Wormit,  
 J. Kussmann,  A. W. Lange,  A. Behn,  Jia Deng,  Xintian Feng,  D. Ghosh,  
 M. Goldey,  P. R. Horn,  L. D. Jacobson,  I. Kaliman,  T. Kus,  A. Landau,  
 Jie Liu,  E. I. Proynov,  R. M. Richard,  R. P. Steele,  E. J. Sundstrom,  
 H. L. Woodcock III,  P. M. Zimmerman,  D. Zuev,  B. Albrecht,  E. Alguire,  
 S. A. Baeppler,  D. Barton,  Z. Benda,  Y. A. Bernard,  E. J. Berquist,  
 K. B. Bravaya,  H. Burton,  D. Casanova,  Chun-Min Chang,  Yunqing Chen,  
 A. Chien,  K. D. Closser,  M. P. Coons,  S. Dasgupta,  A. L. Dempwolff,  
 M. Diedenhofen,  Hainam Do,  R. G. Edgar,  Po-Tung Fang,  S. Fatehi,  
 Qingguo Feng,  J. Fosso-Tande,  Qinghui Ge,  A. Ghysels,  G. Gidofalvi,  
 J. Gomes,  J. Gonthier,  A. Gunina,  M. W. D. Hanson-Heine,  
 P. H. P. Harbach,  A. W. Hauser,  J. E. Herr,  E. G. Hohenstein,  
 Z. C. Holden,  Kerwin Hui,  T.-C. Jagau,  Hyunjun Ji,  B. Kaduk,  
 K. Khistyaev,  Jaehoon Kim,  P. Klunzinger,  K. Koh,  D. Kosenkov,  
 L. Koulias,  T. Kowalczyk,  C. M. Krauter,  A. Kunitsa,  Ka Un Lao,  
 A. Laurent,  K. V. Lawler,  Joonho Lee,  D. Lefrancois,  S. Lehtola,  
 D. S. Levine,  Yi-Pei Li,  You-Sheng Lin,  Fenglai Liu,  E. Livshits,  
 A. Luenser,  P. Manohar,  E. Mansoor,  S. F. Manzer,  Shan-Ping Mao,  
 Yuezhi Mao,  N. Mardirossian,  A. V. Marenich,  T. Markovich,  
 L. A. Martinez-Martinez,  S. A. Maurer,  N. J. Mayhall,  S. C. McKenzie,  
 J.-M. Mewes,  A. F. Morrison,  J. W. Mullinax,  K. Nanda,  
 T. S. Nguyen-Beck,  R. Olivares-Amaya,  J. A. Parkhill,  T. M. Perrine,  
 F. Plasser,  S. Prager,  A. Prociuk,  E. Ramos,  D. R. Rehn,  F. Rob,  
 M. Schneider,  N. Sergueev,  S. M. Sharada,  S. Sharma,  D. W. Small,  
 T. Stauch,  T. Stein,  Yu-Chuan Su,  A. J. W. Thom,  A. Tkatchenko,  
 T. Tsuchimochi,  L. Vogt,  O. Vydrov,  M. A. Watson,  J. Wenzel,  
 M. de Wergifosse,  T. A. Wesolowski,  A. White,  J. Witte,  A. Yamada,  
 Jun Yang,  K. Yao,  S. Yeganeh,  S. R. Yost,  Zhi-Qiang You,  A. Zech,  
 Igor Ying Zhang,  Xing Zhang,  Yan Zhao,  Ying Zhu,  B. R. Brooks,  
 G. K. L. Chan,  C. J. Cramer,  M. S. Gordon,  W. J. Hehre,  A. Klamt,  
 M. W. Schmidt,  C. D. Sherrill,  D. G. Truhlar,  A. Aspuru-Guzik,  R. Baer,  
 A. T. Bell,  N. A. Besley,  Jeng-Da Chai,  R. A. DiStasio Jr.,  A. Dreuw,  
 B. D. Dunietz,  T. R. Furlani,  Chao-Ping Hsu,  Yousung Jung,  Jing Kong,  
 D. S. Lambrecht,  WanZhen Liang,  C. Ochsenfeld,  V. A. Rassolov,  
 L. V. Slipchenko,  J. E. Subotnik,  T. Van Voorhis,  J. M. Herbert,  
 A. I. Krylov,  P. M. W. Gill,  M. Head-Gordon

 Contributors to earlier versions of Q-Chem not listed above: 
 R. D. Adamson,  B. Austin,  J. Baker,  G. J. O. Beran,  K. Brandhorst,  
 S. T. Brown,  E. F. C. Byrd,  A. K. Chakraborty,  C.-L. Cheng,  
 Siu Hung Chien,  D. M. Chipman,  D. L. Crittenden,  H. Dachsel,  
 R. J. Doerksen,  A. D. Dutoi,  L. Fusti-Molnar,  W. A. Goddard III,  
 A. Golubeva-Zadorozhnaya,  S. R. Gwaltney,  G. Hawkins,  A. Heyden,  
 S. Hirata,  G. Kedziora,  F. J. Keil,  C. Kelley,  Jihan Kim,  R. A. King,  
 R. Z. Khaliullin,  P. P. Korambath,  W. Kurlancheek,  A. M. Lee,  M. S. Lee,  
 S. V. Levchenko,  Ching Yeh Lin,  D. Liotard,  R. C. Lochan,  I. Lotan,  
 P. E. Maslen,  N. Nair,  D. P. O'Neill,  D. Neuhauser,  E. Neuscamman,  
 C. M. Oana,  R. Olson,  B. Peters,  R. Peverati,  P. A. Pieniazek,  
 Y. M. Rhee,  J. Ritchie,  M. A. Rohrdanz,  E. Rosta,  N. J. Russ,  
 H. F. Schaefer III,  N. E. Schultz,  N. Shenvi,  A. C. Simmonett,  A. Sodt,  
 D. Stuck,  K. S. Thanthiriwatte,  V. Vanovschi,  Tao Wang,  A. Warshel,  
 C. F. Williams,  Q. Wu,  X. Xu,  W. Zhang

 Please cite Q-Chem as follows:
 Y. Shao et al., Mol. Phys. 113, 184-215 (2015)
 DOI: 10.1080/00268976.2014.952696

 Q-Chem 5.0.2 for Intel X86 EM64T Linux

 Parts of Q-Chem use Armadillo 5.200.1 (Boston Tea Smuggler).
 http://arma.sourceforge.net/

 Q-Chem begins on Thu Feb  1 12:09:36 2018  


Host: 0

     Scratch files written to /home/jcartus/scratch/21_benI-acetone.dir//
 Using version located at /usr/local/qchem/bin/qchem

 Parallel job on  1  processors

Total Memory Limit in MB = 2000
Mega-Array Size in MB = 192

Checking the input file for inconsistencies... 	...done.
Finally everything over in PARseQInput

--------------------------------------------------------------
User input:
--------------------------------------------------------------
$rem
SCF_PRINT                     1
BASIS                         6-311++g**
SCF_SAVE_MATRICES             1
SCF_CONVERGENCE               5
SCF_FINAL_PRINT               1
METHOD                        hf
JOBTYPE                       sp
$end

$molecule
0 1
C    -0.43601987    -1.503e-06    1.035407288
C    0.589762206    -1.3214e-05    1.978500062
C    1.922247312    -6.201e-06    1.571695588
C    2.228266034    -2.1972e-05    0.212569121
C    1.211087138    -6.405e-06    -0.74015358
H    -1.46924203    -1.95e-06    1.352224613
H    0.343101091    -8.425e-06    3.031629685
H    2.714694228    1.1502e-05    2.307032918
H    3.260261396    -2.6554e-05    -0.11155152
H    1.450707808    -1.0108e-05    -1.793985522
C    -0.120402824    2.2122e-05    -0.32357594
I    -1.658224104    0.000221203    -1.73801997
O    -3.949939923    -0.00014345    -3.815896908
C    -3.800618306    0.0037715    -5.025811592
C    -2.413746868    0.013928662    -5.628840849
C    -5.004091973    -0.001515653    -5.942215119
H    -1.881038094    0.891330448    -5.265472224
H    -1.870078249    -0.858483324    -5.269712302
H    -2.420677721    0.016520534    -6.71412314
H    -5.616269855    0.870128273    -5.717411468
H    -5.605371398    -0.881767955    -5.721583165
H    -4.740047227    0.002639189    -6.994882525
$end


--------------------------------------------------------------
 ----------------------------------------------------------------
             Standard Nuclear Orientation (Angstroms)
    I     Atom           X                Y                Z
 ----------------------------------------------------------------
    1      C       2.7954894286    -1.1133752677     0.0027948287
    2      C       4.1754261604    -0.9199135034     0.0028948001
    3      C       4.7073900589     0.3677246629    -0.0000718930
    4      C       3.8518534248     1.4672334439    -0.0031895631
    5      C       2.4699414396     1.2865328615    -0.0033182629
    6      H       2.3840631090    -2.1126971908     0.0051028548
    7      H       4.8322867708    -1.7792457855     0.0053188440
    8      H       5.7786617270     0.5128801080     0.0000450271
    9      H       4.2568591089     2.4702457107    -0.0055145540
   10      H       1.8080672194     2.1408726786    -0.0057309587
   11      C       1.9461589200    -0.0065430086    -0.0002989920
   12      I      -0.1230545597    -0.2962011129    -0.0002684663
   13      O      -3.1835128823    -0.7468990617    -0.0008270120
   14      C      -4.0233022618     0.1368190907     0.0005294665
   15      C      -3.6083808276     1.5911075421     0.0072482317
   16      C      -5.4954647548    -0.2108650866    -0.0045254686
   17      H      -2.9897674008     1.7740277933     0.8844636553
   18      H      -2.9853308730     1.7808349441    -0.8653707120
   19      H      -4.4511250222     2.2749747428     0.0077773685
   20      H      -5.7109551091    -0.8243446339     0.8685543254
   21      H      -5.7065038497    -0.8176335076    -0.8833622595
   22      H      -6.1409304867     0.6616122086    -0.0028176635
 ----------------------------------------------------------------
 Molecular Point Group                 C1    NOp =  1
 Largest Abelian Subgroup              C1    NOp =  1
 Nuclear Repulsion Energy =   969.0485802249 hartrees
 There are       63 alpha and       63 beta electrons
 Requested basis set is 6-311++G(d,p)
 There are 139 shells and 359 basis functions

 Total QAlloc Memory Limit   2000 MB
 Mega-Array Size       188 MB
 MEM_STATIC part       192 MB

finished with qalloc call
 Job number = 2, Threshold = 1.00E-08
Integral type ranges set in mkLRange.C for JobNum: 2  <1-21|1-21>
Symmetry turned off temporarily
 Using the largest function pair in Schwarz integrals
Total number of integrals generated =          655910
Symmetry turned back on
 A cutoff of  1.0D-08 yielded   6239 shell pairs
 There are     41970 function pairs (     45284 Cartesian)
 Job number = 11, Threshold = 1.00E-08
Integral type ranges set in mkLRange.C for JobNum: 11  <1-21|22-22>
Total number of integrals generated =          992882
 Smallest overlap matrix eigenvalue = 1.14E-06

 Q-Chem warning in module /usr/local/qchem/stvman/mkSTV.C, line 295:

 Overlap eigenvalue is smaller than square root of threshold

 Multipole matrices computed through 2nd order

 Scale SEOQF with 1.000000e-02/1.000000e-01/1.000000e-01

 Standard Electronic Orientation quadrupole field applied
 Nucleus-field energy     =     0.0000000102 hartrees
 ENuRep (before)= 969.0485802249
 ENucField = 0.0000000102
 ENuRep (after) = 969.0485802351
 Guess from superposition of atomic densities
 Warning:  Energy on first SCF cycle will be non-variational
 SAD guess density has 126.000000 electrons

 ==================================================
    GEN_SCFMAN: A general SCF calculation manager  
                                                   
    Authors:                                       
        -- Eric Jon Sundstrom 2008-2014            
        -- Paul Horn 2010-2015                     
        -- Yuezhi Mao 2012-                        
        -- Dmitri Zuev 2014                        
        -- Alec White 2015-                        
        -- David Stuck 2015                        
        -- Shaama M.S. 2015                        
        -- Shane Yost 2015-                         
        -- Joonho Lee 2016-                        
        -- David Small 2016-                       
        -- Daniel Levine 2016-                     
        -- Susi Lehtola 2017-                      
        -- Hugh Burton 2017-                       
 ==================================================
 Hartree-Fock
Finding J and K together
 Job number = 22, Threshold = 1.00E-08
Integral type ranges set in mkLRange.C for JobNum: 22  <1-21|1-21>
 MakeJK  time:  CPU      26.78 s  wall      26.88 s
 HF Exchange:              -233.89504703946099
 One-Electron:             -12003.08255736963474
 Total Coulomb:            3925.20030658319547
 Nuclear repulsion:        969.04858023512679
 A restricted SCF calculation will be
 performed using DIIS
 SCF converges when DIIS error is below 1.0e-05
 ---------------------------------------
  Cycle       Energy         DIIS error
 ---------------------------------------
Finding J and K together
 Job number = 22, Threshold = 1.00E-08
Integral type ranges set in mkLRange.C for JobNum: 22  <1-21|1-21>
 MakeJK  time:  CPU     111.88 s  wall     112.21 s
 HF Exchange:              -232.57506399229703
 One-Electron:             -12009.56176847723873
 Total Coulomb:            3934.27802950705336
 Nuclear repulsion:        969.04858023512679
    1   -7342.7287175908      3.32e-02  
Finding J and K together
 Job number = 22, Threshold = 1.00E-08
Integral type ranges set in mkLRange.C for JobNum: 22  <1-21|1-21>
 MakeJK  time:  CPU     111.72 s  wall     112.74 s
 HF Exchange:              -232.57332919135939
 One-Electron:             -12010.12682358933307
 Total Coulomb:            3934.71811177987138
 Nuclear repulsion:        969.04858023512679
    2   -7338.8102227274      3.08e-03  
Finding J and K together
 Job number = 22, Threshold = 1.00E-08
Integral type ranges set in mkLRange.C for JobNum: 22  <1-21|1-21>
 MakeJK  time:  CPU     112.09 s  wall     113.36 s
 HF Exchange:              -232.70866198451245
 One-Electron:             -12010.23863184009315
 Total Coulomb:            3934.91008182772885
 Nuclear repulsion:        969.04858023512679
    3   -7338.9334607657      2.15e-03  
Finding J and K together
 Job number = 22, Threshold = 1.00E-08
Integral type ranges set in mkLRange.C for JobNum: 22  <1-21|1-21>
 MakeJK  time:  CPU     110.90 s  wall     113.44 s
 HF Exchange:              -232.71175909693864
 One-Electron:             -12010.04174677422998
 Total Coulomb:            3934.71156625581762
 Nuclear repulsion:        969.04858023512679
    4   -7338.9886317617      4.56e-04  
Finding J and K together
 Job number = 22, Threshold = 1.00E-08
Integral type ranges set in mkLRange.C for JobNum: 22  <1-21|1-21>
 MakeJK  time:  CPU     110.30 s  wall     111.66 s
 HF Exchange:              -232.72073900908958
 One-Electron:             -12010.15138566576934
 Total Coulomb:            3934.82989206267575
 Nuclear repulsion:        969.04858023512679
    5   -7338.9933593802      1.09e-04  
Finding J and K together
 Job number = 22, Threshold = 1.00E-08
Integral type ranges set in mkLRange.C for JobNum: 22  <1-21|1-21>
 MakeJK  time:  CPU     111.38 s  wall     121.44 s
 HF Exchange:              -232.72040142021180
 One-Electron:             -12010.09395978339126
 Total Coulomb:            3934.77207097130395
 Nuclear repulsion:        969.04858023512679
    6   -7338.9936523771      3.84e-05  
Finding J and K together
 Job number = 22, Threshold = 1.00E-08
Integral type ranges set in mkLRange.C for JobNum: 22  <1-21|1-21>
 MakeJK  time:  CPU     109.99 s  wall     114.56 s
 HF Exchange:              -232.72099413456556
 One-Electron:             -12010.09656611255195
 Total Coulomb:            3934.77525862666198
 Nuclear repulsion:        969.04858023512679
    7   -7338.9937099972      1.77e-05  
    8   -7338.9937213853      7.78e-06  Convergence criterion met
 ---------------------------------------
 SCF time:   CPU 813.89s  wall 835.00s 
 Total energy in the final basis set =    -7338.9937213853
 HF Exchange:              -232.72099413456556
 One-Electron:             -12010.09656611255195
 Total Coulomb:            3934.77525862666198
 Nuclear repulsion:        969.04858023512679
Wall  1 = 836
Clock 1 = 814.82617187500000
 ==================================================
                  Done GEN_SCFMAN                  
 ==================================================

Symmetry turned off temporarily

 --------------------------------------------------------------

                    Orbital Energies (a.u.)
 --------------------------------------------------------------

 Alpha MOs
 -- Occupied --
*******-180.844-169.651-169.650-169.650 -37.898 -33.087 -33.082
-33.082 -24.271 -24.269 -24.269 -24.265 -24.265 -20.549 -11.344
-11.278 -11.245 -11.244 -11.243 -11.242 -11.241 -11.239 -11.237
 -7.216  -5.449  -5.438  -5.438  -2.373  -2.367  -2.367  -2.355
 -2.355  -1.392  -1.161  -1.044  -1.029  -1.024  -0.976  -0.862
 -0.836  -0.786  -0.749  -0.698  -0.650  -0.645  -0.634  -0.632
 -0.625  -0.596  -0.575  -0.570  -0.552  -0.540  -0.516  -0.505
 -0.486  -0.454  -0.414  -0.392  -0.357  -0.343  -0.312
 -- Virtual --
  0.036   0.043   0.050   0.055   0.061   0.069   0.071   0.078
  0.087   0.087   0.104   0.104   0.107   0.118   0.119   0.132
  0.140   0.141   0.141   0.153   0.155   0.166   0.169   0.171
  0.177   0.182   0.184   0.186   0.190   0.193   0.198   0.206
  0.206   0.208   0.210   0.212   0.217   0.225   0.227   0.228
  0.230   0.237   0.243   0.249   0.264   0.280   0.285   0.299
  0.305   0.310   0.312   0.322   0.326   0.335   0.337   0.346
  0.360   0.383   0.384   0.386   0.407   0.414   0.416   0.419
  0.435   0.444   0.449   0.455   0.483   0.487   0.496   0.500
  0.503   0.541   0.547   0.558   0.579   0.593   0.604   0.606
  0.626   0.627   0.645   0.646   0.680   0.696   0.705   0.715
  0.723   0.728   0.733   0.742   0.746   0.755   0.759   0.766
  0.773   0.780   0.814   0.820   0.837   0.844   0.864   0.865
  0.881   0.885   0.891   0.893   0.909   0.933   0.944   0.946
  0.953   0.960   0.994   0.999   1.011   1.035   1.038   1.056
  1.061   1.084   1.098   1.108   1.123   1.131   1.135   1.148
  1.167   1.170   1.202   1.241   1.257   1.280   1.319   1.351
  1.355   1.364   1.384   1.446   1.472   1.477   1.524   1.537
  1.576   1.619   1.625   1.658   1.701   1.709   1.717   1.725
  1.768   1.781   1.788   1.793   1.799   1.804   1.813   1.823
  1.830   1.831   1.840   1.859   1.884   1.894   1.919   1.924
  1.969   2.005   2.013   2.013   2.018   2.052   2.067   2.110
  2.128   2.132   2.132   2.172   2.195   2.224   2.226   2.230
  2.243   2.263   2.287   2.290   2.324   2.346   2.374   2.375
  2.411   2.453   2.469   2.546   2.596   2.632   2.643   2.654
  2.743   2.755   2.781   2.797   2.806   2.835   2.849   2.859
  2.863   2.882   2.887   2.892   2.924   2.956   2.961   2.978
  2.999   3.016   3.032   3.047   3.049   3.059   3.066   3.132
  3.175   3.178   3.187   3.193   3.205   3.235   3.280   3.284
  3.290   3.322   3.358   3.481   3.483   3.522   3.568   3.584
  3.741   3.768   3.789   3.905   3.907   3.917   4.033   4.069
  4.166   4.174   4.176   4.221   4.274   4.405   4.463   4.522
  4.543   4.566   4.573   4.574   4.588   4.694   4.717   4.895
  5.045   5.272   5.619   5.789   6.287   6.617   6.751   6.866
 24.704  24.956  25.089  25.110  25.132  25.147  25.232  25.257
 25.356  29.110  29.601  29.701  29.772  29.911  29.931  29.939
 29.999  30.103  51.686 130.652 130.729 130.795 154.4781912.402
 --------------------------------------------------------------

          Ground-State Mulliken Net Atomic Charges

     Atom                 Charge (a.u.)
  ----------------------------------------
      1 C                    -0.517542
      2 C                    -0.104292
      3 C                    -0.428823
      4 C                    -0.193853
      5 C                    -0.544948
      6 H                     0.195837
      7 H                     0.205588
      8 H                     0.193418
      9 H                     0.209863
     10 H                     0.184685
     11 C                     0.687582
     12 I                     0.113711
     13 O                    -0.342755
     14 C                     0.614189
     15 C                    -0.554926
     16 C                    -0.714937
     17 H                     0.186684
     18 H                     0.186601
     19 H                     0.130081
     20 H                     0.178843
     21 H                     0.178858
     22 H                     0.136136
  ----------------------------------------
  Sum of atomic charges =    -0.000000

 -----------------------------------------------------------------
                    Cartesian Multipole Moments
 -----------------------------------------------------------------
    Charge (ESU x 10^10)
                -0.0000
    Dipole Moment (Debye)
         X      -1.6111      Y       2.5243      Z       0.0040
       Tot       2.9946
    Quadrupole Moments (Debye-Ang)
        XX     -59.6594     XY      -7.2406     YY     -84.9371
        XZ      -0.0057     YZ      -0.0230     ZZ     -93.7653
    Octopole Moments (Debye-Ang^2)
       XXX     -95.3270    XXY      15.4748    XYY       5.7930
       YYY      -9.4052    XXZ       0.0362    XYZ      -0.0904
       YYZ      -0.0037    XZZ     -30.2098    YZZ      -6.1216
       ZZZ      -0.0087
    Hexadecapole Moments (Debye-Ang^3)
      XXXX   -4534.5021   XXXY     -50.0559   XXYY    -931.6043
      XYYY      -0.9662   YYYY    -513.1639   XXXZ       0.2013
      XXYZ      -0.2868   XYYZ      -0.0804   YYYZ      -0.1728
      XXZZ    -986.2065   XYZZ       2.4660   YYZZ    -118.5550
      XZZZ       0.0637   YZZZ       0.0816   ZZZZ    -129.2344
 -----------------------------------------------------------------
 Mayer SCF Bond Order, atomic valence on the diagonal:

            1           2           3           4           5           6
    1   4.5798142   1.5902812   0.0205497  -0.0811124   0.2869541   0.8007551
    2   1.5902812   4.1415003   1.8576156  -0.0842193  -0.1001646   0.0681168
    3   0.0205497   1.8576156   4.7717306   1.8631343   0.0401756  -0.0179337
    4  -0.0811124  -0.0842193   1.8631343   4.2533756   1.6465388   0.0019267
    5   0.2869541  -0.1001646   0.0401756   1.6465388   4.7543557   0.0004570
    6   0.8007551   0.0681168  -0.0179337   0.0019267   0.0004570   0.9514832
    7   0.0352718   0.8225196   0.0756365  -0.0144834  -0.0008396   0.0076744
    8  -0.0448505   0.1244266   0.7557244   0.1163701  -0.0471353   0.0006046
    9   0.0024863  -0.0174647   0.0865223   0.8023563   0.0446493  -0.0001535
   10  -0.0150848   0.0037800  -0.0184419   0.1033283   0.8063504   0.0017806
   11   1.7136214  -0.1754072   0.0878247  -0.2133597   1.6000565   0.0674053
   12   0.2565168   0.0524979   0.0204734   0.1159269   0.4880643   0.0209415
   13   0.0118820  -0.0000928  -0.0010327  -0.0016538  -0.0112843  -0.0003438
   14  -0.0441083   0.0157723  -0.0063006   0.0141196  -0.0131732  -0.0021465
   15   0.0325923  -0.0104986   0.0055060  -0.0136198   0.0083495   0.0018251
   16   0.0063938  -0.0049423   0.0014867  -0.0021678   0.0085636   0.0002698
   17   0.0008716  -0.0001325   0.0003490   0.0001011   0.0000570  -0.0000147
   18   0.0010543  -0.0001581   0.0003629   0.0000401   0.0000202  -0.0000062
   19   0.0059333  -0.0013872   0.0005873  -0.0005698  -0.0004398   0.0004173
   20   0.0001192   0.0003609  -0.0001754   0.0002645  -0.0010780  -0.0000538
   21   0.0001346   0.0003647  -0.0001783   0.0002621  -0.0011038  -0.0000544
   22  -0.0004473   0.0002320  -0.0001550   0.0001929  -0.0006621   0.0000156
            7           8           9          10          11          12
    1   0.0352718  -0.0448505   0.0024863  -0.0150848   1.7136214   0.2565168
    2   0.8225196   0.1244266  -0.0174647   0.0037800  -0.1754072   0.0524979
    3   0.0756365   0.7557244   0.0865223  -0.0184419   0.0878247   0.0204734
    4  -0.0144834   0.1163701   0.8023563   0.1033283  -0.2133597   0.1159269
    5  -0.0008396  -0.0471353   0.0446493   0.8063504   1.6000565   0.4880643
    6   0.0076744   0.0006046  -0.0001535   0.0017806   0.0674053   0.0209415
    7   0.9225683   0.0102108   0.0006884  -0.0000451  -0.0151825   0.0010459
    8   0.0102108   0.9480504   0.0103705   0.0006900   0.0217242  -0.0000432
    9   0.0006884   0.0103705   0.9172923   0.0096827  -0.0240117   0.0018878
   10  -0.0000451   0.0006900   0.0096827   0.9688373   0.0698199   0.0059724
   11  -0.0151825   0.0217242  -0.0240117   0.0698199   3.0909984  -0.0520949
   12   0.0010459  -0.0000432   0.0018878   0.0059724  -0.0520949   0.9235275
   13   0.0000473  -0.0000131   0.0002911  -0.0007911   0.0174166  -0.0358748
   14   0.0002187   0.0000020  -0.0003392   0.0001993   0.0053828  -0.0007880
   15  -0.0002555   0.0001578   0.0001172   0.0011171   0.0054105   0.0390656
   16   0.0001110  -0.0002308   0.0002239  -0.0001770  -0.0129928   0.0050556
   17  -0.0000189   0.0000143  -0.0000289   0.0004329  -0.0013073  -0.0007274
   18  -0.0000197   0.0000151  -0.0000287   0.0004240  -0.0013295  -0.0007396
   19  -0.0000236   0.0000217   0.0000143  -0.0000180  -0.0032510   0.0065344
   20   0.0000065  -0.0000041   0.0000170  -0.0000523   0.0002397   0.0003884
   21   0.0000066  -0.0000042   0.0000174  -0.0000536   0.0002450   0.0003878
   22  -0.0000009  -0.0000002  -0.0000053  -0.0000762   0.0007885  -0.0009631
           13          14          15          16          17          18
    1   0.0118820  -0.0441083   0.0325923   0.0063938   0.0008716   0.0010543
    2  -0.0000928   0.0157723  -0.0104986  -0.0049423  -0.0001325  -0.0001581
    3  -0.0010327  -0.0063006   0.0055060   0.0014867   0.0003490   0.0003629
    4  -0.0016538   0.0141196  -0.0136198  -0.0021678   0.0001011   0.0000401
    5  -0.0112843  -0.0131732   0.0083495   0.0085636   0.0000570   0.0000202
    6  -0.0003438  -0.0021465   0.0018251   0.0002698  -0.0000147  -0.0000062
    7   0.0000473   0.0002187  -0.0002555   0.0001110  -0.0000189  -0.0000197
    8  -0.0000131   0.0000020   0.0001578  -0.0002308   0.0000143   0.0000151
    9   0.0002911  -0.0003392   0.0001172   0.0002239  -0.0000289  -0.0000287
   10  -0.0007911   0.0001993   0.0011171  -0.0001770   0.0004329   0.0004240
   11   0.0174166   0.0053828   0.0054105  -0.0129928  -0.0013073  -0.0013295
   12  -0.0358748  -0.0007880   0.0390656   0.0050556  -0.0007274  -0.0007396
   13   1.7273063   1.9944212  -0.1112029  -0.1061201  -0.0045538  -0.0046930
   14   1.9944212   3.2182114   0.6791905   0.7644548  -0.0083525  -0.0083365
   15  -0.1112029   0.6791905   3.6964724   0.0960148   0.9677689   0.9678318
   16  -0.1061201   0.7644548   0.0960148   3.7239981   0.0000875   0.0001235
   17  -0.0045538  -0.0083525   0.9677689   0.0000875   0.9101415  -0.0261772
   18  -0.0046930  -0.0083365   0.9678318   0.0001235  -0.0261772   0.9102220
   19  -0.0017387  -0.0863637   1.0359834   0.0007004  -0.0198157  -0.0197566
   20  -0.0104694  -0.0108670  -0.0014539   0.9758719  -0.0003742  -0.0000588
   21  -0.0104402  -0.0108506  -0.0014442   0.9758255  -0.0000576  -0.0003792
   22   0.0035529  -0.0639236  -0.0059831   1.0154464   0.0020200   0.0020334
           19          20          21          22
    1   0.0059333   0.0001192   0.0001346  -0.0004473
    2  -0.0013872   0.0003609   0.0003647   0.0002320
    3   0.0005873  -0.0001754  -0.0001783  -0.0001550
    4  -0.0005698   0.0002645   0.0002621   0.0001929
    5  -0.0004398  -0.0010780  -0.0011038  -0.0006621
    6   0.0004173  -0.0000538  -0.0000544   0.0000156
    7  -0.0000236   0.0000065   0.0000066  -0.0000009
    8   0.0000217  -0.0000041  -0.0000042  -0.0000002
    9   0.0000143   0.0000170   0.0000174  -0.0000053
   10  -0.0000180  -0.0000523  -0.0000536  -0.0000762
   11  -0.0032510   0.0002397   0.0002450   0.0007885
   12   0.0065344   0.0003884   0.0003878  -0.0009631
   13  -0.0017387  -0.0104694  -0.0104402   0.0035529
   14  -0.0863637  -0.0108670  -0.0108506  -0.0639236
   15   1.0359834  -0.0014539  -0.0014442  -0.0059831
   16   0.0007004   0.9758719   0.9758255   1.0154464
   17  -0.0198157  -0.0003742  -0.0000576   0.0020200
   18  -0.0197566  -0.0000588  -0.0003792   0.0020334
   19   0.9093783   0.0016937   0.0016943  -0.0108376
   20   0.0016937   0.9137078  -0.0249373  -0.0157298
   21   0.0016943  -0.0249373   0.9136891  -0.0157453
   22  -0.0108376  -0.0157298  -0.0157453   0.9097521


 JobOver = TRUE
Archival summary:
1\1\qciep03\SP\HF\BasisUnspecified\11911\jcartus\ThuFeb112:23:342018ThuFeb112:23:342018\0\\#,HF,BasisUnspecified,\\0,1\I\C,1,2.08939\C,2,1.39514,1,120.02\H,3,1.08073,2,120.183,1,-0.00517383,0\C,3,1.39368,2,119.501,1,179.994,0\H,5,1.0817,3,119.438,2,-179.999,0\C,5,1.39315,3,120.437,2,-0,0\H,7,1.08106,5,120.17,3,-179.998,0\C,7,1.3932,5,119.666,3,0.00182475,0\H,9,1.08163,7,120.159,5,180,0\C,9,1.39343,7,120.428,5,-0.00163859,0\H,11,1.0807,9,120.358,7,-180,0\O,1,3.09347,2,179.591,3,178.29,0\C,13,1.2191,1,125.162,2,-178.518,0\C,14,1.51234,13,120.536,1,-0.200362,0\H,15,1.08531,14,113.134,13,179.998,0\H,15,1.08888,14,108.723,13,-58.0412,0\H,15,1.08888,14,108.722,13,58.0366,0\C,14,1.51267,13,120.251,1,179.799,0\H,19,1.08529,14,113.206,13,-179.995,0\H,19,1.0886,14,108.632,13,-58.1169,0\H,19,1.08861,14,108.633,13,58.1273,0\\HF=-7338.99372\\@

 Total job time:  838.51s(wall), 817.13s(cpu) 
 Thu Feb  1 12:23:34 2018

        *************************************************************
        *                                                           *
        *  Thank you very much for using Q-Chem.  Have a nice day.  *
        *                                                           *
        *************************************************************


*** MISSION COMPLETED -- STARFLEET OUT ***

0 sent ACK to 0 
now end server 0 ... 
