Process 0 of 1 is on qciep03 - thread support 0
initial socket setup ...start
initial socket setup ...done 
now start server 0 ... 
qciep03.tugraz.at 127.0.1
Q-Chem Developer Version! Running on 127.0.1.*
                  Welcome to Q-Chem
     A Quantum Leap Into The Future Of Chemistry


 Q-Chem 5.0, Q-Chem, Inc., Pleasanton, CA (2017)

 Yihan Shao,  Zhengting Gan,  E. Epifanovsky,  A. T. B. Gilbert,  M. Wormit,  
 J. Kussmann,  A. W. Lange,  A. Behn,  Jia Deng,  Xintian Feng,  D. Ghosh,  
 M. Goldey,  P. R. Horn,  L. D. Jacobson,  I. Kaliman,  T. Kus,  A. Landau,  
 Jie Liu,  E. I. Proynov,  R. M. Richard,  R. P. Steele,  E. J. Sundstrom,  
 H. L. Woodcock III,  P. M. Zimmerman,  D. Zuev,  B. Albrecht,  E. Alguire,  
 S. A. Baeppler,  D. Barton,  Z. Benda,  Y. A. Bernard,  E. J. Berquist,  
 K. B. Bravaya,  H. Burton,  D. Casanova,  Chun-Min Chang,  Yunqing Chen,  
 A. Chien,  K. D. Closser,  M. P. Coons,  S. Dasgupta,  A. L. Dempwolff,  
 M. Diedenhofen,  Hainam Do,  R. G. Edgar,  Po-Tung Fang,  S. Fatehi,  
 Qingguo Feng,  J. Fosso-Tande,  Qinghui Ge,  A. Ghysels,  G. Gidofalvi,  
 J. Gomes,  J. Gonthier,  A. Gunina,  M. W. D. Hanson-Heine,  
 P. H. P. Harbach,  A. W. Hauser,  J. E. Herr,  E. G. Hohenstein,  
 Z. C. Holden,  Kerwin Hui,  T.-C. Jagau,  Hyunjun Ji,  B. Kaduk,  
 K. Khistyaev,  Jaehoon Kim,  P. Klunzinger,  K. Koh,  D. Kosenkov,  
 L. Koulias,  T. Kowalczyk,  C. M. Krauter,  A. Kunitsa,  Ka Un Lao,  
 A. Laurent,  K. V. Lawler,  Joonho Lee,  D. Lefrancois,  S. Lehtola,  
 D. S. Levine,  Yi-Pei Li,  You-Sheng Lin,  Fenglai Liu,  E. Livshits,  
 A. Luenser,  P. Manohar,  E. Mansoor,  S. F. Manzer,  Shan-Ping Mao,  
 Yuezhi Mao,  N. Mardirossian,  A. V. Marenich,  T. Markovich,  
 L. A. Martinez-Martinez,  S. A. Maurer,  N. J. Mayhall,  S. C. McKenzie,  
 J.-M. Mewes,  A. F. Morrison,  J. W. Mullinax,  K. Nanda,  
 T. S. Nguyen-Beck,  R. Olivares-Amaya,  J. A. Parkhill,  T. M. Perrine,  
 F. Plasser,  S. Prager,  A. Prociuk,  E. Ramos,  D. R. Rehn,  F. Rob,  
 M. Schneider,  N. Sergueev,  S. M. Sharada,  S. Sharma,  D. W. Small,  
 T. Stauch,  T. Stein,  Yu-Chuan Su,  A. J. W. Thom,  A. Tkatchenko,  
 T. Tsuchimochi,  L. Vogt,  O. Vydrov,  M. A. Watson,  J. Wenzel,  
 M. de Wergifosse,  T. A. Wesolowski,  A. White,  J. Witte,  A. Yamada,  
 Jun Yang,  K. Yao,  S. Yeganeh,  S. R. Yost,  Zhi-Qiang You,  A. Zech,  
 Igor Ying Zhang,  Xing Zhang,  Yan Zhao,  Ying Zhu,  B. R. Brooks,  
 G. K. L. Chan,  C. J. Cramer,  M. S. Gordon,  W. J. Hehre,  A. Klamt,  
 M. W. Schmidt,  C. D. Sherrill,  D. G. Truhlar,  A. Aspuru-Guzik,  R. Baer,  
 A. T. Bell,  N. A. Besley,  Jeng-Da Chai,  R. A. DiStasio Jr.,  A. Dreuw,  
 B. D. Dunietz,  T. R. Furlani,  Chao-Ping Hsu,  Yousung Jung,  Jing Kong,  
 D. S. Lambrecht,  WanZhen Liang,  C. Ochsenfeld,  V. A. Rassolov,  
 L. V. Slipchenko,  J. E. Subotnik,  T. Van Voorhis,  J. M. Herbert,  
 A. I. Krylov,  P. M. W. Gill,  M. Head-Gordon

 Contributors to earlier versions of Q-Chem not listed above: 
 R. D. Adamson,  B. Austin,  J. Baker,  G. J. O. Beran,  K. Brandhorst,  
 S. T. Brown,  E. F. C. Byrd,  A. K. Chakraborty,  C.-L. Cheng,  
 Siu Hung Chien,  D. M. Chipman,  D. L. Crittenden,  H. Dachsel,  
 R. J. Doerksen,  A. D. Dutoi,  L. Fusti-Molnar,  W. A. Goddard III,  
 A. Golubeva-Zadorozhnaya,  S. R. Gwaltney,  G. Hawkins,  A. Heyden,  
 S. Hirata,  G. Kedziora,  F. J. Keil,  C. Kelley,  Jihan Kim,  R. A. King,  
 R. Z. Khaliullin,  P. P. Korambath,  W. Kurlancheek,  A. M. Lee,  M. S. Lee,  
 S. V. Levchenko,  Ching Yeh Lin,  D. Liotard,  R. C. Lochan,  I. Lotan,  
 P. E. Maslen,  N. Nair,  D. P. O'Neill,  D. Neuhauser,  E. Neuscamman,  
 C. M. Oana,  R. Olson,  B. Peters,  R. Peverati,  P. A. Pieniazek,  
 Y. M. Rhee,  J. Ritchie,  M. A. Rohrdanz,  E. Rosta,  N. J. Russ,  
 H. F. Schaefer III,  N. E. Schultz,  N. Shenvi,  A. C. Simmonett,  A. Sodt,  
 D. Stuck,  K. S. Thanthiriwatte,  V. Vanovschi,  Tao Wang,  A. Warshel,  
 C. F. Williams,  Q. Wu,  X. Xu,  W. Zhang

 Please cite Q-Chem as follows:
 Y. Shao et al., Mol. Phys. 113, 184-215 (2015)
 DOI: 10.1080/00268976.2014.952696

 Q-Chem 5.0.2 for Intel X86 EM64T Linux

 Parts of Q-Chem use Armadillo 5.200.1 (Boston Tea Smuggler).
 http://arma.sourceforge.net/

 Q-Chem begins on Thu Jan 25 17:27:33 2018  


Host: 0

     Scratch files written to /home/jcartus/scratch/Adenine-thymine-complex-stack_mono1.dir//
 Using version located at /usr/local/qchem/bin/qchem

 Parallel job on  1  processors

Total Memory Limit in MB = 2000
Mega-Array Size in MB = 192

Checking the input file for inconsistencies... 	...done.
Finally everything over in PARseQInput

--------------------------------------------------------------
User input:
--------------------------------------------------------------
$rem
SCF_PRINT                     1
BASIS                         6-311++g**
SCF_SAVE_MATRICES             1
SCF_CONVERGENCE               5
SCF_FINAL_PRINT               1
METHOD                        hf
JOBTYPE                       sp
$end

$molecule
0 1
N    -3.9211729    -0.0009646    -1.5163659
C    -4.6136833    0.0169051    -0.333652
C    -3.9917387    0.0219348    0.8663338
C    -2.5361367    0.0074651    0.8766724
N    -1.9256484    -0.0110593    -0.3638948
C    -2.5395897    -0.0149474    -1.5962357
C    -4.7106131    0.0413373    2.1738637
O    -1.867473    0.0112093    1.9120833
O    -1.9416783    -0.0291878    -2.6573783
H    -4.4017172    -0.0036078    -2.4004924
H    -0.8838255    -0.0216168    -0.3784269
H    -5.690922    0.0269347    -0.4227183
H    -4.4439282    -0.8302573    2.7695655
H    -4.4267056    0.9186178    2.7530256
H    -5.7883971    0.050553    2.024728
$end


--------------------------------------------------------------
 ----------------------------------------------------------------
             Standard Nuclear Orientation (Angstroms)
    I     Atom           X                Y                Z
 ----------------------------------------------------------------
    1      N       1.1172284048    -1.2363541168     0.0004718528
    2      C      -0.2312477869    -1.4819433050     0.0002261404
    3      C      -1.1456617064    -0.4866275522     0.0000269224
    4      C      -0.6567306121     0.8845178730     0.0002490736
    5      N       0.7180158044     1.0332357035     0.0014292350
    6      C       1.6655531307     0.0343491169     0.0001126626
    7      C      -2.6204442139    -0.7142406259    -0.0003519781
    8      O      -1.4005186715     1.8673604078    -0.0006278244
    9      O       2.8673791400     0.2326844227    -0.0012284984
   10      H       1.7832991359    -1.9906476774    -0.0002240837
   11      H       1.0885665306     2.0070990058     0.0015890050
   12      H      -0.5165937860    -2.5245622305    -0.0000028492
   13      H      -3.0783374805    -0.2543028833     0.8739761334
   14      H      -3.0778060591    -0.2545061614    -0.8750618816
   15      H      -2.8495344217    -1.7779428454    -0.0003102815
 ----------------------------------------------------------------
 Molecular Point Group                 C1    NOp =  1
 Largest Abelian Subgroup              C1    NOp =  1
 Nuclear Repulsion Energy =   440.3015710896 hartrees
 There are       33 alpha and       33 beta electrons
 Requested basis set is 6-311++G(d,p)
 There are 84 shells and 240 basis functions

 Total QAlloc Memory Limit   2000 MB
 Mega-Array Size       188 MB
 MEM_STATIC part       192 MB

finished with qalloc call

                       Distance Matrix (Angstroms)
             N (  1)   C (  2)   C (  3)   C (  4)   N (  5)   C (  6)
   C (  2)  1.370658
   C (  3)  2.383854  1.351594
   C (  4)  2.764964  2.404407  1.455711
   N (  5)  2.304433  2.688350  2.404845  1.382768
   C (  6)  1.383961  2.428373  2.859081  2.473012  1.376809
   C (  7)  3.773963  2.509507  1.492244  2.532232  3.768155  4.350880
   O (  8)  3.996510  3.547539  2.367744  1.232559  2.276830  3.572216
   O (  9)  2.284974  3.541389  4.076997  3.583886  2.293611  1.218082
   H ( 10)  1.006285  2.077782  3.292550  3.770984  3.206041  2.028417
   H ( 11)  3.243580  3.730325  3.348201  2.075151  1.041978  2.055397
   H ( 12)  2.080590  1.080961  2.132816  3.411959  3.765925  3.363003
   H ( 13)  4.396613  3.221251  2.133775  2.815047  4.102608  4.832334
   H ( 14)  4.396464  3.221122  2.133739  2.815165  4.103021  4.832062
   H ( 15)  4.003564  2.634965  2.137914  3.449215  4.542042  4.865225
             C (  7)   O (  8)   O (  9)   H ( 10)   H ( 11)   H ( 12)
   O (  8)  2.855325
   O (  9)  5.568920  4.570243
   H ( 10)  4.584994  5.002092  2.473547
   H ( 11)  4.600267  2.493006  2.512515  4.057664
   H ( 12)  2.775509  4.479990  4.365053  2.361053  4.807546
   H ( 13)  1.088880  2.842791  6.029485  5.235898  4.820590  3.532768
   H ( 14)  1.088877  2.842577  6.028778  5.235444  4.820999  3.532519
   H ( 15)  1.088092  3.922739  6.060175  4.637714  5.462159  2.449500
             H ( 13)   H ( 14)
   H ( 14)  1.749038
   H ( 15)  1.771498  1.771485

 Job number = 2, Threshold = 1.00E-08
Integral type ranges set in mkLRange.C for JobNum: 2  <1-21|1-21>
Symmetry turned off temporarily
 Using the largest function pair in Schwarz integrals
Total number of integrals generated =          437387
Symmetry turned back on
 A cutoff of  1.0D-08 yielded   3030 shell pairs
 There are     25554 function pairs (     27461 Cartesian)
 Job number = 11, Threshold = 1.00E-08
Integral type ranges set in mkLRange.C for JobNum: 11  <1-21|22-22>
Total number of integrals generated =          411900
 Smallest overlap matrix eigenvalue = 5.58E-06

 Q-Chem warning in module /usr/local/qchem/stvman/mkSTV.C, line 295:

 Overlap eigenvalue is smaller than square root of threshold

 Multipole matrices computed through 2nd order

 Scale SEOQF with 1.000000e-01/1.000000e-01/1.000000e-01

 Standard Electronic Orientation quadrupole field applied
 Nucleus-field energy     =     0.0000000129 hartrees
 ENuRep (before)= 440.3015710896
 ENucField = 0.0000000129
 ENuRep (after) = 440.3015711026
 Guess from superposition of atomic densities
 Warning:  Energy on first SCF cycle will be non-variational
 SAD guess density has 66.000000 electrons

 ==================================================
    GEN_SCFMAN: A general SCF calculation manager  
                                                   
    Authors:                                       
        -- Eric Jon Sundstrom 2008-2014            
        -- Paul Horn 2010-2015                     
        -- Yuezhi Mao 2012-                        
        -- Dmitri Zuev 2014                        
        -- Alec White 2015-                        
        -- David Stuck 2015                        
        -- Shaama M.S. 2015                        
        -- Shane Yost 2015-                         
        -- Joonho Lee 2016-                        
        -- David Small 2016-                       
        -- Daniel Levine 2016-                     
        -- Susi Lehtola 2017-                      
        -- Hugh Burton 2017-                       
 ==================================================
 Hartree-Fock
Finding J and K together
 Job number = 22, Threshold = 1.00E-08
Integral type ranges set in mkLRange.C for JobNum: 22  <1-21|1-21>
 MakeJK  time:  CPU       8.83 s  wall       8.87 s
 HF Exchange:              -58.71533919160757
 One-Electron:             -1485.15489000094726
 Total Coulomb:            648.58058293035356
 Nuclear repulsion:        440.30157110257107
 A restricted SCF calculation will be
 performed using DIIS
 SCF converges when DIIS error is below 1.0e-05
 ---------------------------------------
  Cycle       Energy         DIIS error
 ---------------------------------------
Finding J and K together
 Job number = 22, Threshold = 1.00E-08
Integral type ranges set in mkLRange.C for JobNum: 22  <1-21|1-21>
 MakeJK  time:  CPU      40.20 s  wall      40.42 s
 HF Exchange:              -57.93481576788432
 One-Electron:             -1487.02970996732324
 Total Coulomb:            653.29212579966963
 Nuclear repulsion:        440.30157110257107
    1    -454.9880751596      4.66e-02  
Finding J and K together
 Job number = 22, Threshold = 1.00E-08
Integral type ranges set in mkLRange.C for JobNum: 22  <1-21|1-21>
 MakeJK  time:  CPU      35.83 s  wall      35.88 s
 HF Exchange:              -57.61589238063971
 One-Electron:             -1489.10733692921190
 Total Coulomb:            654.93858072601779
 Nuclear repulsion:        440.30157110257107
    2    -451.3708288330      5.98e-03  
Finding J and K together
 Job number = 22, Threshold = 1.00E-08
Integral type ranges set in mkLRange.C for JobNum: 22  <1-21|1-21>
 MakeJK  time:  CPU      40.08 s  wall      40.13 s
 HF Exchange:              -57.86121783499133
 One-Electron:             -1488.44632736804033
 Total Coulomb:            654.38633657948162
 Nuclear repulsion:        440.30157110257107
    3    -451.4830774813      5.12e-03  
Finding J and K together
 Job number = 22, Threshold = 1.00E-08
Integral type ranges set in mkLRange.C for JobNum: 22  <1-21|1-21>
 MakeJK  time:  CPU      33.33 s  wall      33.44 s
 HF Exchange:              -57.87039263562018
 One-Electron:             -1488.48313446510974
 Total Coulomb:            654.42821335190968
 Nuclear repulsion:        440.30157110257107
    4    -451.6196375210      5.87e-04  
Finding J and K together
 Job number = 22, Threshold = 1.00E-08
Integral type ranges set in mkLRange.C for JobNum: 22  <1-21|1-21>
 MakeJK  time:  CPU      36.13 s  wall      36.22 s
 HF Exchange:              -57.87303343310980
 One-Electron:             -1488.46587770386373
 Total Coulomb:            654.41310553220455
 Nuclear repulsion:        440.30157110257107
    5    -451.6237426462      1.98e-04  
Finding J and K together
 Job number = 22, Threshold = 1.00E-08
Integral type ranges set in mkLRange.C for JobNum: 22  <1-21|1-21>
 MakeJK  time:  CPU      41.41 s  wall      41.63 s
 HF Exchange:              -57.87598314002047
 One-Electron:             -1488.48862619237480
 Total Coulomb:            654.43868147918533
 Nuclear repulsion:        440.30157110257107
    6    -451.6242345022      7.21e-05  
Finding J and K together
 Job number = 22, Threshold = 1.00E-08
Integral type ranges set in mkLRange.C for JobNum: 22  <1-21|1-21>
 MakeJK  time:  CPU      39.82 s  wall      40.11 s
 HF Exchange:              -57.87670646960191
 One-Electron:             -1488.48474290619833
 Total Coulomb:            654.43549314617940
 Nuclear repulsion:        440.30157110257107
    7    -451.6243567506      3.79e-05  
Finding J and K together
 Job number = 22, Threshold = 1.00E-08
Integral type ranges set in mkLRange.C for JobNum: 22  <1-21|1-21>
 MakeJK  time:  CPU      34.84 s  wall      35.15 s
 HF Exchange:              -57.87673274048270
 One-Electron:             -1488.48384901618556
 Total Coulomb:            654.43462157882698
 Nuclear repulsion:        440.30157110257107
    8    -451.6243851270      1.60e-05  
    9    -451.6243890753      5.16e-06  Convergence criterion met
 ---------------------------------------
 SCF time:   CPU 313.72s  wall 315.00s 
 Total energy in the final basis set =     -451.6243890753
 HF Exchange:              -57.87673274048270
 One-Electron:             -1488.48384901618556
 Total Coulomb:            654.43462157882698
 Nuclear repulsion:        440.30157110257107
Wall  1 = 316
Clock 1 = 314.05139160156250
 ==================================================
                  Done GEN_SCFMAN                  
 ==================================================

Symmetry turned off temporarily

 --------------------------------------------------------------

                    Orbital Energies (a.u.)
 --------------------------------------------------------------

 Alpha MOs
 -- Occupied --
-20.546 -20.540 -15.642 -15.635 -11.422 -11.382 -11.332 -11.263
-11.238  -1.438  -1.395  -1.313  -1.249  -1.112  -0.974  -0.921
 -0.901  -0.777  -0.774  -0.713  -0.677  -0.671  -0.643  -0.617
 -0.593  -0.571  -0.560  -0.553  -0.515  -0.481  -0.448  -0.435
 -0.354
 -- Virtual --
  0.025   0.046   0.059   0.065   0.070   0.086   0.088   0.098
  0.100   0.124   0.129   0.134   0.144   0.151   0.156   0.166
  0.167   0.173   0.181   0.182   0.185   0.204   0.209   0.217
  0.220   0.244   0.249   0.258   0.259   0.281   0.281   0.296
  0.297   0.314   0.317   0.325   0.330   0.349   0.355   0.364
  0.378   0.391   0.398   0.410   0.415   0.421   0.431   0.433
  0.449   0.453   0.474   0.482   0.503   0.527   0.537   0.562
  0.584   0.585   0.661   0.670   0.690   0.732   0.738   0.749
  0.762   0.767   0.779   0.794   0.831   0.838   0.852   0.855
  0.893   0.907   0.936   0.949   0.970   0.987   1.021   1.023
  1.024   1.054   1.062   1.076   1.086   1.124   1.144   1.179
  1.189   1.248   1.249   1.289   1.342   1.345   1.361   1.370
  1.405   1.421   1.437   1.447   1.459   1.463   1.501   1.516
  1.564   1.598   1.624   1.675   1.719   1.762   1.798   1.810
  1.826   1.831   1.841   1.893   1.911   1.928   1.942   1.975
  1.994   2.066   2.067   2.081   2.119   2.120   2.137   2.168
  2.216   2.262   2.273   2.293   2.314   2.397   2.450   2.462
  2.563   2.563   2.601   2.628   2.646   2.736   2.743   2.796
  2.825   2.862   2.867   2.906   2.918   2.945   2.975   3.008
  3.027   3.084   3.139   3.163   3.182   3.189   3.219   3.245
  3.264   3.267   3.309   3.316   3.335   3.367   3.386   3.494
  3.568   3.712   3.747   3.755   3.813   3.847   3.878   3.961
  3.999   4.032   4.057   4.122   4.199   4.261   4.299   4.344
  4.345   4.464   4.651   4.739   5.176   5.264   5.361   5.606
  5.637   5.700   5.782   5.862   6.329   6.373  24.835  24.973
 25.024  25.138  25.309  36.996  37.045  51.715  51.762
 --------------------------------------------------------------

          Ground-State Mulliken Net Atomic Charges

     Atom                 Charge (a.u.)
  ----------------------------------------
      1 N                    -0.544360
      2 C                    -0.128102
      3 C                     0.424229
      4 C                     0.344061
      5 N                    -0.581594
      6 C                     0.549193
      7 C                    -0.733133
      8 O                    -0.429262
      9 O                    -0.443200
     10 H                     0.390003
     11 H                     0.424148
     12 H                     0.242127
     13 H                     0.179989
     14 H                     0.179970
     15 H                     0.125931
  ----------------------------------------
  Sum of atomic charges =     0.000000

 -----------------------------------------------------------------
                    Cartesian Multipole Moments
 -----------------------------------------------------------------
    Charge (ESU x 10^10)
                 0.0000
    Dipole Moment (Debye)
         X      -0.9669      Y      -4.8642      Z       0.0034
       Tot       4.9593
    Quadrupole Moments (Debye-Ang)
        XX     -65.6698     XY       3.9229     YY     -47.6404
        XZ       0.0068     YZ       0.0091     ZZ     -53.1344
    Octopole Moments (Debye-Ang^2)
       XXX     -40.4874    XXY     -17.6140    XYY      26.3388
       YYY     -22.7821    XXZ       0.0301    XYZ       0.0039
       YYZ       0.0093    XZZ       2.0275    YZZ       3.7095
       ZZZ      -0.0075
    Hexadecapole Moments (Debye-Ang^3)
      XXXX   -1099.0069   XXXY     -18.1492   XXYY    -225.7618
      XYYY      20.5873   YYYY    -392.7833   XXXZ       0.0733
      XXYZ       0.0251   XYYZ      -0.0040   YYYZ       0.0420
      XXZZ    -166.5218   XYZZ      -4.1114   YYZZ     -87.5567
      XZZZ      -0.0030   YZZZ      -0.0001   ZZZZ     -59.1442
 -----------------------------------------------------------------
 Mayer SCF Bond Order, atomic valence on the diagonal:

            1           2           3           4           5           6
    1   2.7528272   0.6902026   0.2610016  -0.1614228   0.0665996   1.1090206
    2   0.6902026   3.6929150   2.0164391  -0.2033417  -0.2050973  -0.1422913
    3   0.2610016   2.0164391   3.5303948   1.0193848   0.1461461   0.1450397
    4  -0.1614228  -0.2033417   1.0193848   3.0909099   0.8017970  -0.1583863
    5   0.0665996  -0.2050973   0.1461461   0.8017970   2.7206121   1.0592124
    6   1.1090206  -0.1422913   0.1450397  -0.1583863   1.0592124   3.8172863
    7   0.0047523   0.6670880   0.0245110   0.0450567   0.0351742  -0.0077824
    8   0.0072398  -0.0116054   0.0133756   1.6985381  -0.0049243   0.0568697
    9  -0.0521145   0.0628521  -0.0183699   0.0611319  -0.0431246   1.7954965
   10   0.8745607  -0.0343074   0.0160546  -0.0153987   0.0124329  -0.0197238
   11   0.0094569  -0.0342994   0.0260618  -0.0318929   0.8598444  -0.0258291
   12  -0.0586505   0.7874817   0.1099755   0.0059625  -0.0065149   0.0068014
   13   0.0016495  -0.0117910  -0.0006251   0.0237744  -0.0008993  -0.0000818
   14   0.0016542  -0.0118646  -0.0005611   0.0236937  -0.0008896  -0.0000796
   15  -0.0011228   0.1234496  -0.2280388  -0.0179867   0.0008554  -0.0009794
            7           8           9          10          11          12
    1   0.0047523   0.0072398  -0.0521145   0.8745607   0.0094569  -0.0586505
    2   0.6670880  -0.0116054   0.0628521  -0.0343074  -0.0342994   0.7874817
    3   0.0245110   0.0133756  -0.0183699   0.0160546   0.0260618   0.1099755
    4   0.0450567   1.6985381   0.0611319  -0.0153987  -0.0318929   0.0059625
    5   0.0351742  -0.0049243  -0.0431246   0.0124329   0.8598444  -0.0065149
    6  -0.0077824   0.0568697   1.7954965  -0.0197238  -0.0258291   0.0068014
    7   3.7494707   0.0118037  -0.0138373   0.0046976   0.0135603   0.0376972
    8   0.0118037   1.7360007   0.0060666   0.0005117  -0.0176704   0.0004289
    9  -0.0138373   0.0060666   1.7816029  -0.0075668  -0.0108083   0.0015813
   10   0.0046976   0.0005117  -0.0075668   0.8310663   0.0001311  -0.0012123
   11   0.0135603  -0.0176704  -0.0108083   0.0001311   0.7886540  -0.0007894
   12   0.0376972   0.0004289   0.0015813  -0.0012123  -0.0007894   0.8863966
   13   0.9277931  -0.0109458   0.0002568   0.0000009   0.0001685   0.0002933
   14   0.9279028  -0.0109523   0.0002564   0.0000006   0.0001677   0.0002892
   15   1.0710536  -0.0027351  -0.0002174   0.0008854   0.0005527   0.0030528
           13          14          15
    1   0.0016495   0.0016542  -0.0011228
    2  -0.0117910  -0.0118646   0.1234496
    3  -0.0006251  -0.0005611  -0.2280388
    4   0.0237744   0.0236937  -0.0179867
    5  -0.0008993  -0.0008896   0.0008554
    6  -0.0000818  -0.0000796  -0.0009794
    7   0.9277931   0.9279028   1.0710536
    8  -0.0109458  -0.0109523  -0.0027351
    9   0.0002568   0.0002564  -0.0002174
   10   0.0000009   0.0000006   0.0008854
   11   0.0001685   0.0001677   0.0005527
   12   0.0002933   0.0002892   0.0030528
   13   0.8832640  -0.0323108  -0.0140187
   14  -0.0323108   0.8832806  -0.0140260
   15  -0.0140187  -0.0140260   0.9207246


 JobOver = TRUE
Archival summary:
1\1\qciep03\SP\HF\BasisUnspecified\2256\jcartus\ThuJan2517:32:502018ThuJan2517:32:502018\0\\#,HF,BasisUnspecified,\\0,1\N\H,1,1.04198\C,1,1.37681,2,115.68\O,3,1.21808,1,124.118,2,-0.0224844,0\C,1,1.38277,2,117.006,3,-179.893,0\O,5,1.23256,1,120.943,2,0.00314858,0\N,3,1.38396,1,113.17,2,179.977,0\H,7,1.00628,3,115.213,1,-179.985,0\C,7,1.37066,3,123.663,1,0.0882043,0\H,9,1.08096,7,115.628,3,179.967,0\C,9,1.35159,7,122.252,3,-0.021202,0\C,11,1.49224,9,123.801,7,179.995,0\H,12,1.08809,11,110.928,9,0.0074907,0\H,12,1.08888,11,110.544,9,-120.933,0\H,12,1.08888,11,110.546,9,120.951,0\\HF=-451.624389\\@

 Total job time:  316.83s(wall), 315.18s(cpu) 
 Thu Jan 25 17:32:50 2018

        *************************************************************
        *                                                           *
        *  Thank you very much for using Q-Chem.  Have a nice day.  *
        *                                                           *
        *************************************************************


*** MISSION COMPLETED -- STARFLEET OUT ***

0 sent ACK to 0 
now end server 0 ... 
