Process 0 of 1 is on qciep03 - thread support 0
initial socket setup ...start
initial socket setup ...done 
now start server 0 ... 
qciep03.tugraz.at 127.0.1
Q-Chem Developer Version! Running on 127.0.1.*
                  Welcome to Q-Chem
     A Quantum Leap Into The Future Of Chemistry


 Q-Chem 5.0, Q-Chem, Inc., Pleasanton, CA (2017)

 Yihan Shao,  Zhengting Gan,  E. Epifanovsky,  A. T. B. Gilbert,  M. Wormit,  
 J. Kussmann,  A. W. Lange,  A. Behn,  Jia Deng,  Xintian Feng,  D. Ghosh,  
 M. Goldey,  P. R. Horn,  L. D. Jacobson,  I. Kaliman,  T. Kus,  A. Landau,  
 Jie Liu,  E. I. Proynov,  R. M. Richard,  R. P. Steele,  E. J. Sundstrom,  
 H. L. Woodcock III,  P. M. Zimmerman,  D. Zuev,  B. Albrecht,  E. Alguire,  
 S. A. Baeppler,  D. Barton,  Z. Benda,  Y. A. Bernard,  E. J. Berquist,  
 K. B. Bravaya,  H. Burton,  D. Casanova,  Chun-Min Chang,  Yunqing Chen,  
 A. Chien,  K. D. Closser,  M. P. Coons,  S. Dasgupta,  A. L. Dempwolff,  
 M. Diedenhofen,  Hainam Do,  R. G. Edgar,  Po-Tung Fang,  S. Fatehi,  
 Qingguo Feng,  J. Fosso-Tande,  Qinghui Ge,  A. Ghysels,  G. Gidofalvi,  
 J. Gomes,  J. Gonthier,  A. Gunina,  M. W. D. Hanson-Heine,  
 P. H. P. Harbach,  A. W. Hauser,  J. E. Herr,  E. G. Hohenstein,  
 Z. C. Holden,  Kerwin Hui,  T.-C. Jagau,  Hyunjun Ji,  B. Kaduk,  
 K. Khistyaev,  Jaehoon Kim,  P. Klunzinger,  K. Koh,  D. Kosenkov,  
 L. Koulias,  T. Kowalczyk,  C. M. Krauter,  A. Kunitsa,  Ka Un Lao,  
 A. Laurent,  K. V. Lawler,  Joonho Lee,  D. Lefrancois,  S. Lehtola,  
 D. S. Levine,  Yi-Pei Li,  You-Sheng Lin,  Fenglai Liu,  E. Livshits,  
 A. Luenser,  P. Manohar,  E. Mansoor,  S. F. Manzer,  Shan-Ping Mao,  
 Yuezhi Mao,  N. Mardirossian,  A. V. Marenich,  T. Markovich,  
 L. A. Martinez-Martinez,  S. A. Maurer,  N. J. Mayhall,  S. C. McKenzie,  
 J.-M. Mewes,  A. F. Morrison,  J. W. Mullinax,  K. Nanda,  
 T. S. Nguyen-Beck,  R. Olivares-Amaya,  J. A. Parkhill,  T. M. Perrine,  
 F. Plasser,  S. Prager,  A. Prociuk,  E. Ramos,  D. R. Rehn,  F. Rob,  
 M. Schneider,  N. Sergueev,  S. M. Sharada,  S. Sharma,  D. W. Small,  
 T. Stauch,  T. Stein,  Yu-Chuan Su,  A. J. W. Thom,  A. Tkatchenko,  
 T. Tsuchimochi,  L. Vogt,  O. Vydrov,  M. A. Watson,  J. Wenzel,  
 M. de Wergifosse,  T. A. Wesolowski,  A. White,  J. Witte,  A. Yamada,  
 Jun Yang,  K. Yao,  S. Yeganeh,  S. R. Yost,  Zhi-Qiang You,  A. Zech,  
 Igor Ying Zhang,  Xing Zhang,  Yan Zhao,  Ying Zhu,  B. R. Brooks,  
 G. K. L. Chan,  C. J. Cramer,  M. S. Gordon,  W. J. Hehre,  A. Klamt,  
 M. W. Schmidt,  C. D. Sherrill,  D. G. Truhlar,  A. Aspuru-Guzik,  R. Baer,  
 A. T. Bell,  N. A. Besley,  Jeng-Da Chai,  R. A. DiStasio Jr.,  A. Dreuw,  
 B. D. Dunietz,  T. R. Furlani,  Chao-Ping Hsu,  Yousung Jung,  Jing Kong,  
 D. S. Lambrecht,  WanZhen Liang,  C. Ochsenfeld,  V. A. Rassolov,  
 L. V. Slipchenko,  J. E. Subotnik,  T. Van Voorhis,  J. M. Herbert,  
 A. I. Krylov,  P. M. W. Gill,  M. Head-Gordon

 Contributors to earlier versions of Q-Chem not listed above: 
 R. D. Adamson,  B. Austin,  J. Baker,  G. J. O. Beran,  K. Brandhorst,  
 S. T. Brown,  E. F. C. Byrd,  A. K. Chakraborty,  C.-L. Cheng,  
 Siu Hung Chien,  D. M. Chipman,  D. L. Crittenden,  H. Dachsel,  
 R. J. Doerksen,  A. D. Dutoi,  L. Fusti-Molnar,  W. A. Goddard III,  
 A. Golubeva-Zadorozhnaya,  S. R. Gwaltney,  G. Hawkins,  A. Heyden,  
 S. Hirata,  G. Kedziora,  F. J. Keil,  C. Kelley,  Jihan Kim,  R. A. King,  
 R. Z. Khaliullin,  P. P. Korambath,  W. Kurlancheek,  A. M. Lee,  M. S. Lee,  
 S. V. Levchenko,  Ching Yeh Lin,  D. Liotard,  R. C. Lochan,  I. Lotan,  
 P. E. Maslen,  N. Nair,  D. P. O'Neill,  D. Neuhauser,  E. Neuscamman,  
 C. M. Oana,  R. Olson,  B. Peters,  R. Peverati,  P. A. Pieniazek,  
 Y. M. Rhee,  J. Ritchie,  M. A. Rohrdanz,  E. Rosta,  N. J. Russ,  
 H. F. Schaefer III,  N. E. Schultz,  N. Shenvi,  A. C. Simmonett,  A. Sodt,  
 D. Stuck,  K. S. Thanthiriwatte,  V. Vanovschi,  Tao Wang,  A. Warshel,  
 C. F. Williams,  Q. Wu,  X. Xu,  W. Zhang

 Please cite Q-Chem as follows:
 Y. Shao et al., Mol. Phys. 113, 184-215 (2015)
 DOI: 10.1080/00268976.2014.952696

 Q-Chem 5.0.2 for Intel X86 EM64T Linux

 Parts of Q-Chem use Armadillo 5.200.1 (Boston Tea Smuggler).
 http://arma.sourceforge.net/

 Q-Chem begins on Thu Feb  1 12:13:54 2018  


Host: 0

     Scratch files written to /home/jcartus/scratch/06_chloromethane-methane_mono1.dir//
 Using version located at /usr/local/qchem/bin/qchem

 Parallel job on  1  processors

Total Memory Limit in MB = 2000
Mega-Array Size in MB = 192

Checking the input file for inconsistencies... 	...done.
Finally everything over in PARseQInput

--------------------------------------------------------------
User input:
--------------------------------------------------------------
$rem
SCF_PRINT                     1
BASIS                         6-311++g**
SCF_SAVE_MATRICES             1
SCF_CONVERGENCE               5
SCF_FINAL_PRINT               1
METHOD                        hf
JOBTYPE                       sp
$end

$molecule
0 1
C    0.052125307    -0.031919514    1.840660293
Cl    -1.491715802    0.847207403    1.755184684
H    0.81190911    0.554725768    1.338264649
H    -0.067811208    -0.989274688    1.347792712
H    0.311197296    -0.173143788    2.883203118
$end


--------------------------------------------------------------
 ----------------------------------------------------------------
             Standard Nuclear Orientation (Angstroms)
    I     Atom           X                Y                Z
 ----------------------------------------------------------------
    1      C       1.1231382412     0.0003393106    -0.0000072030
    2      Cl     -0.6555172726    -0.0000465025     0.0000012653
    3      H       1.4686242263    -0.5201487143    -0.8851948370
    4      H       1.4686517775    -0.5086651399     0.8918263100
    5      H       1.4676881842     1.0275685333    -0.0066097645
 ----------------------------------------------------------------
 Molecular Point Group                 C1    NOp =  1
 Largest Abelian Subgroup              C1    NOp =  1
 Nuclear Repulsion Energy =    51.4704471289 hartrees
 There are       13 alpha and       13 beta electrons
 Requested basis set is 6-311++G(d,p)
 There are 34 shells and 73 basis functions

 Total QAlloc Memory Limit   2000 MB
 Mega-Array Size       188 MB
 MEM_STATIC part       192 MB

finished with qalloc call

                       Distance Matrix (Angstroms)
             C (  1)   Cl(  2)   H (  3)   H (  4)
   Cl(  2)  1.778656
   H (  3)  1.083432  2.359249
   H (  4)  1.083435  2.359267  1.777058
   H (  5)  1.083493  2.358821  1.779703  1.779664

 Job number = 2, Threshold = 1.00E-08
Integral type ranges set in mkLRange.C for JobNum: 2  <1-21|1-21>
Symmetry turned off temporarily
 Using the largest function pair in Schwarz integrals
Total number of integrals generated =           31783
Symmetry turned back on
 A cutoff of  1.0D-08 yielded    584 shell pairs
 There are      2764 function pairs (      2923 Cartesian)
 Job number = 11, Threshold = 1.00E-08
Integral type ranges set in mkLRange.C for JobNum: 11  <1-21|22-22>
Total number of integrals generated =           14570
 Smallest overlap matrix eigenvalue = 4.66E-04
 Multipole matrices computed through 2nd order

 Scale SEOQF with 1.000000e-01/1.000000e-01/1.000000e-01

 Standard Electronic Orientation quadrupole field applied
 Nucleus-field energy     =     0.0000000007 hartrees
 ENuRep (before)= 51.4704471289
 ENucField = 0.0000000007
 ENuRep (after) = 51.4704471296
 Guess from superposition of atomic densities
 Warning:  Energy on first SCF cycle will be non-variational
 SAD guess density has 26.000000 electrons

 ==================================================
    GEN_SCFMAN: A general SCF calculation manager  
                                                   
    Authors:                                       
        -- Eric Jon Sundstrom 2008-2014            
        -- Paul Horn 2010-2015                     
        -- Yuezhi Mao 2012-                        
        -- Dmitri Zuev 2014                        
        -- Alec White 2015-                        
        -- David Stuck 2015                        
        -- Shaama M.S. 2015                        
        -- Shane Yost 2015-                         
        -- Joonho Lee 2016-                        
        -- David Small 2016-                       
        -- Daniel Levine 2016-                     
        -- Susi Lehtola 2017-                      
        -- Hugh Burton 2017-                       
 ==================================================
 Hartree-Fock
Finding J and K together
 Job number = 22, Threshold = 1.00E-08
Integral type ranges set in mkLRange.C for JobNum: 22  <1-21|1-21>
 MakeJK  time:  CPU       0.69 s  wall       0.78 s
 HF Exchange:              -33.74117516616469
 One-Electron:             -788.70340655961627
 Total Coulomb:            271.59238713192974
 Nuclear repulsion:         51.47044712960132
 A restricted SCF calculation will be
 performed using DIIS
 SCF converges when DIIS error is below 1.0e-05
 ---------------------------------------
  Cycle       Energy         DIIS error
 ---------------------------------------
Finding J and K together
 Job number = 22, Threshold = 1.00E-08
Integral type ranges set in mkLRange.C for JobNum: 22  <1-21|1-21>
 MakeJK  time:  CPU       1.18 s  wall       1.27 s
 HF Exchange:              -33.76920912605920
 One-Electron:             -790.37718490299130
 Total Coulomb:            273.56606053160812
 Nuclear repulsion:         51.47044712960132
    1    -499.3817474642      5.85e-02  
Finding J and K together
 Job number = 22, Threshold = 1.00E-08
Integral type ranges set in mkLRange.C for JobNum: 22  <1-21|1-21>
 MakeJK  time:  CPU       1.20 s  wall       1.27 s
 HF Exchange:              -33.80380550933915
 One-Electron:             -790.33596317394415
 Total Coulomb:            273.54032494025262
 Nuclear repulsion:         51.47044712960132
    2    -499.1098863678      4.97e-03  
Finding J and K together
 Job number = 22, Threshold = 1.00E-08
Integral type ranges set in mkLRange.C for JobNum: 22  <1-21|1-21>
 MakeJK  time:  CPU       1.19 s  wall       1.30 s
 HF Exchange:              -33.80636920277418
 One-Electron:             -790.34288778441055
 Total Coulomb:            273.54658092773195
 Nuclear repulsion:         51.47044712960132
    3    -499.1289966134      2.26e-03  
Finding J and K together
 Job number = 22, Threshold = 1.00E-08
Integral type ranges set in mkLRange.C for JobNum: 22  <1-21|1-21>
 MakeJK  time:  CPU       1.17 s  wall       1.24 s
 HF Exchange:              -33.81208219392653
 One-Electron:             -790.35764134079875
 Total Coulomb:            273.56675453282577
 Nuclear repulsion:         51.47044712960132
    4    -499.1322289299      5.02e-04  
Finding J and K together
 Job number = 22, Threshold = 1.00E-08
Integral type ranges set in mkLRange.C for JobNum: 22  <1-21|1-21>
 MakeJK  time:  CPU       1.19 s  wall       1.19 s
 HF Exchange:              -33.81195266958601
 One-Electron:             -790.34799973116515
 Total Coulomb:            273.55697180962602
 Nuclear repulsion:         51.47044712960132
    5    -499.1325218723      8.15e-05  
Finding J and K together
 Job number = 22, Threshold = 1.00E-08
Integral type ranges set in mkLRange.C for JobNum: 22  <1-21|1-21>
 MakeJK  time:  CPU       1.19 s  wall       1.21 s
 HF Exchange:              -33.81218091489734
 One-Electron:             -790.34967749217196
 Total Coulomb:            273.55887697814796
 Nuclear repulsion:         51.47044712960132
    6    -499.1325334615      2.15e-05  
    7    -499.1325342993      6.20e-06  Convergence criterion met
 ---------------------------------------
 SCF time:   CPU 7.91s  wall 8.00s 
 Total energy in the final basis set =     -499.1325342993
 HF Exchange:              -33.81218091489734
 One-Electron:             -790.34967749217196
 Total Coulomb:            273.55887697814796
 Nuclear repulsion:         51.47044712960132
Wall  1 = 8
Clock 1 = 7.93969821929932
 ==================================================
                  Done GEN_SCFMAN                  
 ==================================================

Symmetry turned off temporarily

 --------------------------------------------------------------

                    Orbital Energies (a.u.)
 --------------------------------------------------------------

 Alpha MOs
 -- Occupied --
******* -11.292 -10.550  -8.019  -8.016  -8.016  -1.131  -0.918
 -0.621  -0.621  -0.548  -0.436  -0.436
 -- Virtual --
  0.038   0.071   0.071   0.087   0.140   0.153   0.153   0.157
  0.157   0.175   0.239   0.261   0.282   0.282   0.363   0.536
  0.537   0.551   0.622   0.622   0.683   0.832   0.832   0.863
  1.024   1.063   1.063   1.147   1.162   1.162   1.401   1.401
  1.419   1.684   1.783   1.784   1.984   1.984   1.987   2.253
  2.431   2.432   2.690   2.690   2.757   2.774   2.787   2.788
  2.878   2.878   3.202   3.622   4.120   4.123  10.424  25.021
 26.738  26.738  27.169 219.276
 --------------------------------------------------------------

          Ground-State Mulliken Net Atomic Charges

     Atom                 Charge (a.u.)
  ----------------------------------------
      1 C                    -0.524053
      2 Cl                    0.028547
      3 H                     0.165240
      4 H                     0.165243
      5 H                     0.165023
  ----------------------------------------
  Sum of atomic charges =     0.000000

 -----------------------------------------------------------------
                    Cartesian Multipole Moments
 -----------------------------------------------------------------
    Charge (ESU x 10^10)
                 0.0000
    Dipole Moment (Debye)
         X       2.2480      Y      -0.0006      Z       0.0000
       Tot       2.2480
    Quadrupole Moments (Debye-Ang)
        XX     -18.3665     XY      -0.0027     YY     -20.1112
        XZ       0.0001     YZ       0.0000     ZZ     -20.1220
    Octopole Moments (Debye-Ang^2)
       XXX      -1.3100    XXY      -0.0069    XYY       1.2613
       YYY       0.7895    XXZ       0.0002    XYZ      -0.0000
       YYZ      -0.0153    XZZ       1.2468    YZZ      -0.7898
       ZZZ       0.0153
    Hexadecapole Moments (Debye-Ang^3)
      XXXX    -116.0389   XXXY      -0.0142   XXYY     -24.3743
      XYYY       1.1859   YYYY     -28.9924   XXXZ       0.0003
      XXYZ      -0.0000   XYYZ      -0.0230   YYYZ       0.0001
      XXZZ     -24.3913   XYZZ      -1.1899   YYZZ      -9.6623
      XZZZ       0.0231   YZZZ      -0.0000   ZZZZ     -28.9924
 -----------------------------------------------------------------
 Mayer SCF Bond Order, atomic valence on the diagonal:

            1           2           3           4           5
    1   3.7838729   0.9000155   0.9611853   0.9611807   0.9614914
    2   0.9000155   0.8566712  -0.0144774  -0.0144779  -0.0143889
    3   0.9611853  -0.0144774   0.8983913  -0.0242281  -0.0240885
    4   0.9611807  -0.0144779  -0.0242281   0.8983840  -0.0240906
    5   0.9614914  -0.0143889  -0.0240885  -0.0240906   0.8989234


 JobOver = TRUE
Archival summary:
1\1\qciep03\SP\HF\BasisUnspecified\l113\jcartus\ThuFeb112:14:022018ThuFeb112:14:022018\0\\#,HF,BasisUnspecified,\\0,1\Cl\C,1,1.77866\H,2,1.08343,1,108.589\H,2,1.08344,1,108.59,3,-119.822,0\H,2,1.08349,1,108.554,3,120.091,0\\HF=-499.132534\\@

 Total job time:  8.65s(wall), 8.12s(cpu) 
 Thu Feb  1 12:14:02 2018

        *************************************************************
        *                                                           *
        *  Thank you very much for using Q-Chem.  Have a nice day.  *
        *                                                           *
        *************************************************************


*** MISSION COMPLETED -- STARFLEET OUT ***

0 sent ACK to 0 
now end server 0 ... 
