Process 0 of 1 is on qciep03 - thread support 0
initial socket setup ...start
initial socket setup ...done 
now start server 0 ... 
qciep03.tugraz.at 127.0.1
Q-Chem Developer Version! Running on 127.0.1.*
                  Welcome to Q-Chem
     A Quantum Leap Into The Future Of Chemistry


 Q-Chem 5.0, Q-Chem, Inc., Pleasanton, CA (2017)

 Yihan Shao,  Zhengting Gan,  E. Epifanovsky,  A. T. B. Gilbert,  M. Wormit,  
 J. Kussmann,  A. W. Lange,  A. Behn,  Jia Deng,  Xintian Feng,  D. Ghosh,  
 M. Goldey,  P. R. Horn,  L. D. Jacobson,  I. Kaliman,  T. Kus,  A. Landau,  
 Jie Liu,  E. I. Proynov,  R. M. Richard,  R. P. Steele,  E. J. Sundstrom,  
 H. L. Woodcock III,  P. M. Zimmerman,  D. Zuev,  B. Albrecht,  E. Alguire,  
 S. A. Baeppler,  D. Barton,  Z. Benda,  Y. A. Bernard,  E. J. Berquist,  
 K. B. Bravaya,  H. Burton,  D. Casanova,  Chun-Min Chang,  Yunqing Chen,  
 A. Chien,  K. D. Closser,  M. P. Coons,  S. Dasgupta,  A. L. Dempwolff,  
 M. Diedenhofen,  Hainam Do,  R. G. Edgar,  Po-Tung Fang,  S. Fatehi,  
 Qingguo Feng,  J. Fosso-Tande,  Qinghui Ge,  A. Ghysels,  G. Gidofalvi,  
 J. Gomes,  J. Gonthier,  A. Gunina,  M. W. D. Hanson-Heine,  
 P. H. P. Harbach,  A. W. Hauser,  J. E. Herr,  E. G. Hohenstein,  
 Z. C. Holden,  Kerwin Hui,  T.-C. Jagau,  Hyunjun Ji,  B. Kaduk,  
 K. Khistyaev,  Jaehoon Kim,  P. Klunzinger,  K. Koh,  D. Kosenkov,  
 L. Koulias,  T. Kowalczyk,  C. M. Krauter,  A. Kunitsa,  Ka Un Lao,  
 A. Laurent,  K. V. Lawler,  Joonho Lee,  D. Lefrancois,  S. Lehtola,  
 D. S. Levine,  Yi-Pei Li,  You-Sheng Lin,  Fenglai Liu,  E. Livshits,  
 A. Luenser,  P. Manohar,  E. Mansoor,  S. F. Manzer,  Shan-Ping Mao,  
 Yuezhi Mao,  N. Mardirossian,  A. V. Marenich,  T. Markovich,  
 L. A. Martinez-Martinez,  S. A. Maurer,  N. J. Mayhall,  S. C. McKenzie,  
 J.-M. Mewes,  A. F. Morrison,  J. W. Mullinax,  K. Nanda,  
 T. S. Nguyen-Beck,  R. Olivares-Amaya,  J. A. Parkhill,  T. M. Perrine,  
 F. Plasser,  S. Prager,  A. Prociuk,  E. Ramos,  D. R. Rehn,  F. Rob,  
 M. Schneider,  N. Sergueev,  S. M. Sharada,  S. Sharma,  D. W. Small,  
 T. Stauch,  T. Stein,  Yu-Chuan Su,  A. J. W. Thom,  A. Tkatchenko,  
 T. Tsuchimochi,  L. Vogt,  O. Vydrov,  M. A. Watson,  J. Wenzel,  
 M. de Wergifosse,  T. A. Wesolowski,  A. White,  J. Witte,  A. Yamada,  
 Jun Yang,  K. Yao,  S. Yeganeh,  S. R. Yost,  Zhi-Qiang You,  A. Zech,  
 Igor Ying Zhang,  Xing Zhang,  Yan Zhao,  Ying Zhu,  B. R. Brooks,  
 G. K. L. Chan,  C. J. Cramer,  M. S. Gordon,  W. J. Hehre,  A. Klamt,  
 M. W. Schmidt,  C. D. Sherrill,  D. G. Truhlar,  A. Aspuru-Guzik,  R. Baer,  
 A. T. Bell,  N. A. Besley,  Jeng-Da Chai,  R. A. DiStasio Jr.,  A. Dreuw,  
 B. D. Dunietz,  T. R. Furlani,  Chao-Ping Hsu,  Yousung Jung,  Jing Kong,  
 D. S. Lambrecht,  WanZhen Liang,  C. Ochsenfeld,  V. A. Rassolov,  
 L. V. Slipchenko,  J. E. Subotnik,  T. Van Voorhis,  J. M. Herbert,  
 A. I. Krylov,  P. M. W. Gill,  M. Head-Gordon

 Contributors to earlier versions of Q-Chem not listed above: 
 R. D. Adamson,  B. Austin,  J. Baker,  G. J. O. Beran,  K. Brandhorst,  
 S. T. Brown,  E. F. C. Byrd,  A. K. Chakraborty,  C.-L. Cheng,  
 Siu Hung Chien,  D. M. Chipman,  D. L. Crittenden,  H. Dachsel,  
 R. J. Doerksen,  A. D. Dutoi,  L. Fusti-Molnar,  W. A. Goddard III,  
 A. Golubeva-Zadorozhnaya,  S. R. Gwaltney,  G. Hawkins,  A. Heyden,  
 S. Hirata,  G. Kedziora,  F. J. Keil,  C. Kelley,  Jihan Kim,  R. A. King,  
 R. Z. Khaliullin,  P. P. Korambath,  W. Kurlancheek,  A. M. Lee,  M. S. Lee,  
 S. V. Levchenko,  Ching Yeh Lin,  D. Liotard,  R. C. Lochan,  I. Lotan,  
 P. E. Maslen,  N. Nair,  D. P. O'Neill,  D. Neuhauser,  E. Neuscamman,  
 C. M. Oana,  R. Olson,  B. Peters,  R. Peverati,  P. A. Pieniazek,  
 Y. M. Rhee,  J. Ritchie,  M. A. Rohrdanz,  E. Rosta,  N. J. Russ,  
 H. F. Schaefer III,  N. E. Schultz,  N. Shenvi,  A. C. Simmonett,  A. Sodt,  
 D. Stuck,  K. S. Thanthiriwatte,  V. Vanovschi,  Tao Wang,  A. Warshel,  
 C. F. Williams,  Q. Wu,  X. Xu,  W. Zhang

 Please cite Q-Chem as follows:
 Y. Shao et al., Mol. Phys. 113, 184-215 (2015)
 DOI: 10.1080/00268976.2014.952696

 Q-Chem 5.0.2 for Intel X86 EM64T Linux

 Parts of Q-Chem use Armadillo 5.200.1 (Boston Tea Smuggler).
 http://arma.sourceforge.net/

 Q-Chem begins on Thu Jan 25 17:19:46 2018  


Host: 0

     Scratch files written to /home/jcartus/scratch/Benzene-dimer-T-shaped.dir//
 Using version located at /usr/local/qchem/bin/qchem

 Parallel job on  1  processors

Total Memory Limit in MB = 2000
Mega-Array Size in MB = 192

Checking the input file for inconsistencies... 	...done.
Finally everything over in PARseQInput

--------------------------------------------------------------
User input:
--------------------------------------------------------------
$rem
SCF_PRINT                     1
BASIS                         6-311++g**
SCF_SAVE_MATRICES             1
SCF_CONVERGENCE               5
SCF_FINAL_PRINT               1
METHOD                        hf
JOBTYPE                       sp
$end

$molecule
0 1
C    0.0    0.0    1.0590353
C    0.0    -1.2060084    1.7576742
C    0.0    -1.2071767    3.1515905
C    0.0    0.0    3.8485751
C    0.0    1.2071767    3.1515905
C    0.0    1.2060084    1.7576742
H    0.0    0.0    -0.0215805
H    0.0    -2.1416387    1.2144217
H    0.0    -2.1435657    3.6929953
H    0.0    0.0    4.9301499
H    0.0    2.1435657    3.6929953
H    0.0    2.1416387    1.2144217
C    -1.3940633    0.0    -2.4541524
C    -0.6970468    1.2072378    -2.4546277
C    0.6970468    1.2072378    -2.4546277
C    1.3940633    0.0    -2.4541524
C    0.6970468    -1.2072378    -2.4546277
C    -0.6970468    -1.2072378    -2.4546277
H    -2.4753995    0.0    -2.4503221
H    -1.2382321    2.1435655    -2.4536764
H    1.2382321    2.1435655    -2.4536764
H    2.4753995    0.0    -2.4503221
H    1.2382321    -2.1435655    -2.4536764
H    -1.2382321    -2.1435655    -2.4536764
$end


--------------------------------------------------------------
 I, IOp=           1           2  D=   2.1147105230955362E-017 Fix sym
 I, IOp=           1           3  D=   2.1147105230955362E-017 Fix sym
 I, IOp=           1           4  D=   1.2948867366160866E-033 Fix sym
 I,J,IOp=           2           6           2  D=   2.1147105230955386E-017 Fix sym
 I, IOp=           2           3  D=   2.5795303299533358E-016 Fix sym
 I,J,IOp=           3           5           2  D=   2.1147105230955337E-017 Fix sym
 I, IOp=           3           3  D=   2.5822340647821308E-016 Fix sym
 I, IOp=           4           2  D=   2.1147105230955362E-017 Fix sym
 I, IOp=           4           3  D=   2.1147105230955362E-017 Fix sym
 I, IOp=           4           4  D=   1.2948867366160866E-033 Fix sym
 I, IOp=           7           2  D=   2.1147105230955362E-017 Fix sym
 I, IOp=           7           3  D=   2.1147105230955362E-017 Fix sym
 I, IOp=           7           4  D=   1.2948867366160866E-033 Fix sym
 I,J,IOp=           8          12           2  D=   2.1147105230955386E-017 Fix sym
 I, IOp=           8           3  D=   4.7448099918421280E-016 Fix sym
 I,J,IOp=           9          11           2  D=   2.1147105230955386E-017 Fix sym
 I, IOp=           9           3  D=   4.7492695459079365E-016 Fix sym
 I, IOp=          10           2  D=   2.1147105230955362E-017 Fix sym
 I, IOp=          10           3  D=   2.1147105230955362E-017 Fix sym
 I, IOp=          10           4  D=   1.2948867366160866E-033 Fix sym
 I,J,IOp=          13          16           2  D=   0.0000000000000000      Fix sym
 I, IOp=          13           4  D=   3.2262068798707919E-016 Fix sym
 I,J,IOp=          14          17           2  D=   0.0000000000000000      Fix sym
 I,J,IOp=          14          15           3  D=   4.4408920985006262E-016 Fix sym
 I,J,IOp=          14          18           4  D=   4.4408920985006262E-016 Fix sym
 I,J,IOp=          19          22           2  D=   0.0000000000000000      Fix sym
 I, IOp=          19           4  D=   5.7286859910369341E-016 Fix sym
 I,J,IOp=          20          23           2  D=   0.0000000000000000      Fix sym
 I,J,IOp=          20          21           3  D=   8.8817841970012523E-016 Fix sym
 I,J,IOp=          20          24           4  D=   8.8817841970012523E-016 Fix sym
 ----------------------------------------------------------------
             Standard Nuclear Orientation (Angstroms)
    I     Atom           X                Y                Z
 ----------------------------------------------------------------
    1      C       0.0000000000     0.0000000000     1.0589876952
    2      C       1.2060084000    -0.0000000000     1.7576265952
    3      C       1.2071767000    -0.0000000000     3.1515428952
    4      C       0.0000000000     0.0000000000     3.8485274952
    5      C      -1.2071767000     0.0000000000     3.1515428952
    6      C      -1.2060084000     0.0000000000     1.7576265952
    7      H       0.0000000000     0.0000000000    -0.0216281048
    8      H       2.1416387000    -0.0000000000     1.2143740952
    9      H       2.1435657000    -0.0000000000     3.6929476952
   10      H       0.0000000000     0.0000000000     4.9301022952
   11      H      -2.1435657000     0.0000000000     3.6929476952
   12      H      -2.1416387000     0.0000000000     1.2143740952
   13      C      -0.0000000000    -1.3940633000    -2.4542000048
   14      C      -1.2072378000    -0.6970468000    -2.4546753048
   15      C      -1.2072378000     0.6970468000    -2.4546753048
   16      C       0.0000000000     1.3940633000    -2.4542000048
   17      C       1.2072378000     0.6970468000    -2.4546753048
   18      C       1.2072378000    -0.6970468000    -2.4546753048
   19      H      -0.0000000000    -2.4753995000    -2.4503697048
   20      H      -2.1435655000    -1.2382321000    -2.4537240048
   21      H      -2.1435655000     1.2382321000    -2.4537240048
   22      H       0.0000000000     2.4753995000    -2.4503697048
   23      H       2.1435655000     1.2382321000    -2.4537240048
   24      H       2.1435655000    -1.2382321000    -2.4537240048
 ----------------------------------------------------------------
 Molecular Point Group                 C2v   NOp =  4
 Largest Abelian Subgroup              C2v   NOp =  4
 Nuclear Repulsion Energy =   592.4166477594 hartrees
 There are       42 alpha and       42 beta electrons
 Requested basis set is 6-311++G(d,p)
 There are 132 shells and 348 basis functions

 Total QAlloc Memory Limit   2000 MB
 Mega-Array Size       188 MB
 MEM_STATIC part       192 MB

finished with qalloc call
 Job number = 2, Threshold = 1.00E-08
Integral type ranges set in mkLRange.C for JobNum: 2  <1-21|1-21>
Symmetry turned off temporarily
 Using the largest function pair in Schwarz integrals
Total number of integrals generated =          709216
Symmetry turned back on
 A cutoff of  1.0D-08 yielded   6658 shell pairs
 There are     46426 function pairs (     49408 Cartesian)
 Job number = 11, Threshold = 1.00E-08
Integral type ranges set in mkLRange.C for JobNum: 11  <1-21|22-22>
Total number of integrals generated =          442200
 Smallest overlap matrix eigenvalue = 7.93E-07

 Q-Chem warning in module /usr/local/qchem/stvman/mkSTV.C, line 295:

 Overlap eigenvalue is smaller than square root of threshold

 Linear dependence detected in AO basis
 Number of orthogonalized atomic orbitals = 346
 Maximum deviation from orthogonality = 3.031E-11
 Multipole matrices computed through 2nd order

 Scale SEOQF with 1.000000e-01/1.000000e-01/1.000000e-01

 Standard Electronic Orientation quadrupole field applied
 Nucleus-field energy     =    -0.0000000523 hartrees
 ENuRep (before)= 592.4166477594
 ENucField = -0.0000000523
 ENuRep (after) = 592.4166477071
 Guess from superposition of atomic densities
 Warning:  Energy on first SCF cycle will be non-variational
 SAD guess density has 84.000000 electrons

 ==================================================
    GEN_SCFMAN: A general SCF calculation manager  
                                                   
    Authors:                                       
        -- Eric Jon Sundstrom 2008-2014            
        -- Paul Horn 2010-2015                     
        -- Yuezhi Mao 2012-                        
        -- Dmitri Zuev 2014                        
        -- Alec White 2015-                        
        -- David Stuck 2015                        
        -- Shaama M.S. 2015                        
        -- Shane Yost 2015-                         
        -- Joonho Lee 2016-                        
        -- David Small 2016-                       
        -- Daniel Levine 2016-                     
        -- Susi Lehtola 2017-                      
        -- Hugh Burton 2017-                       
 ==================================================
 Hartree-Fock
Finding J and K together
 Job number = 22, Threshold = 1.00E-08
Integral type ranges set in mkLRange.C for JobNum: 22  <1-21|1-21>
 MakeJK  time:  CPU       8.53 s  wall       8.89 s
 HF Exchange:              -68.32871736654734
 One-Electron:             -1788.74643744767195
 Total Coulomb:            798.12107043672370
 Nuclear repulsion:        592.41664770707234
 A restricted SCF calculation will be
 performed using DIIS
 SCF converges when DIIS error is below 1.0e-05
 ---------------------------------------
  Cycle       Energy         DIIS error
 ---------------------------------------
Finding J and K together
 Job number = 22, Threshold = 1.00E-08
Integral type ranges set in mkLRange.C for JobNum: 22  <1-21|1-21>
 MakeJK  time:  CPU      44.63 s  wall      45.04 s
 HF Exchange:              -66.33799149938012
 One-Electron:             -1798.53393882288356
 Total Coulomb:            811.07314005524415
 Nuclear repulsion:        592.41664770707234
    1    -466.5374366704      3.69e-02  
Finding J and K together
 Job number = 22, Threshold = 1.00E-08
Integral type ranges set in mkLRange.C for JobNum: 22  <1-21|1-21>
 MakeJK  time:  CPU      48.16 s  wall      48.45 s
 HF Exchange:              -66.43464705291386
 One-Electron:             -1796.91822223426016
 Total Coulomb:            809.43514099283288
 Nuclear repulsion:        592.41664770707234
    2    -461.3821425599      2.36e-03  
Finding J and K together
 Job number = 22, Threshold = 1.00E-08
Integral type ranges set in mkLRange.C for JobNum: 22  <1-21|1-21>
 MakeJK  time:  CPU      45.11 s  wall      45.61 s
 HF Exchange:              -66.54223195925842
 One-Electron:             -1798.22992201635520
 Total Coulomb:            810.84558226208799
 Nuclear repulsion:        592.41664770707234
    3    -461.5010805873      6.41e-04  
Finding J and K together
 Job number = 22, Threshold = 1.00E-08
Integral type ranges set in mkLRange.C for JobNum: 22  <1-21|1-21>
 MakeJK  time:  CPU      51.73 s  wall      51.92 s
 HF Exchange:              -66.51564251453300
 One-Electron:             -1797.63399970746195
 Total Coulomb:            810.22207771121032
 Nuclear repulsion:        592.41664770707234
    4    -461.5099240065      2.47e-04  
Finding J and K together
 Job number = 22, Threshold = 1.00E-08
Integral type ranges set in mkLRange.C for JobNum: 22  <1-21|1-21>
 MakeJK  time:  CPU      40.69 s  wall      40.81 s
 HF Exchange:              -66.51720252246976
 One-Electron:             -1797.65917328415026
 Total Coulomb:            810.24878922182472
 Nuclear repulsion:        592.41664770707234
    5    -461.5109168037      2.88e-05  
Finding J and K together
 Job number = 22, Threshold = 1.00E-08
Integral type ranges set in mkLRange.C for JobNum: 22  <1-21|1-21>
 MakeJK  time:  CPU      52.97 s  wall      53.05 s
 HF Exchange:              -66.51731324257152
 One-Electron:             -1797.65712559442636
 Total Coulomb:            810.24684890354354
 Nuclear repulsion:        592.41664770707234
    6    -461.5109388777      1.25e-05  
    7    -461.5109422264      3.41e-06  Convergence criterion met
 ---------------------------------------
 SCF time:   CPU 298.93s  wall 301.00s 
 Total energy in the final basis set =     -461.5109422264
 HF Exchange:              -66.51731324257152
 One-Electron:             -1797.65712559442636
 Total Coulomb:            810.24684890354354
 Nuclear repulsion:        592.41664770707234
Wall  1 = 302
Clock 1 = 299.81350708007812
 ==================================================
                  Done GEN_SCFMAN                  
 ==================================================

Symmetry turned off temporarily

 --------------------------------------------------------------
             Orbital Energies (a.u.) and Symmetries
 --------------------------------------------------------------

 Alpha MOs, Restricted
 -- Occupied --                  
-11.243 -11.243 -11.242 -11.241 -11.241 -11.241 -11.231 -11.230
  1 A1    1 B1    1 B2    1 A2    2 A1    2 B2    3 A1    2 B1                 
-11.229 -11.228 -11.228 -11.224  -1.158  -1.144  -1.022  -1.022
  4 A1    5 A1    3 B1    6 A1    7 A1    8 A1    4 B1    3 B2                 
 -1.009  -1.008  -0.830  -0.830  -0.818  -0.817  -0.716  -0.704
  5 B1    9 A1    2 A2   10 A1    6 B1   11 A1   12 A1   13 A1                 
 -0.649  -0.637  -0.626  -0.612  -0.595  -0.594  -0.584  -0.582
  4 B2   14 A1    7 B1    8 B1    9 B1    5 B2   15 A1   10 B1                 
 -0.511  -0.501  -0.501  -0.494  -0.488  -0.481  -0.345  -0.344
 16 A1    3 A2   17 A1    6 B2   11 B1   18 A1    7 B2   12 B1                 
 -0.330  -0.326
  4 A2    8 B2                                                                 
 -- Virtual --                   
  0.038   0.044   0.049   0.049   0.059   0.063   0.065   0.070
 19 A1   13 B1    9 B2   20 A1   14 B1   21 A1    5 A2   22 A1                 
  0.087   0.096   0.096   0.101   0.102   0.118   0.121   0.124
 15 B1   10 B2   23 A1    6 A2   24 A1   11 B2   25 A1    7 A2                 
  0.129   0.137   0.152   0.156   0.160   0.164   0.167   0.169
 12 B2   26 A1   16 B1   13 B2   17 B1    8 A2   27 A1   18 B1                 
  0.176   0.176   0.178   0.187   0.189   0.192   0.200   0.201
 28 A1   14 B2    9 A2   29 A1   19 B1   30 A1   31 A1   15 B2                 
  0.203   0.205   0.210   0.211   0.218   0.219   0.222   0.223
 20 B1   16 B2   32 A1   10 A2   21 B1   33 A1   11 A2   17 B2                 
  0.234   0.244   0.246   0.247   0.249   0.250   0.251   0.252
 22 B1   34 A1   18 B2   23 B1   19 B2   35 A1   24 B1   12 A2                 
  0.257   0.277   0.284   0.287   0.298   0.302   0.302   0.306
 36 A1   20 B2   37 A1   25 B1   21 B2   38 A1   13 A2   26 B1                 
  0.329   0.333   0.337   0.344   0.350   0.365   0.367   0.379
 39 A1   14 A2   40 A1   27 B1   41 A1   42 A1   22 B2   43 A1                 
  0.383   0.390   0.410   0.410   0.411   0.421   0.425   0.427
 23 B2   28 B1   24 B2   44 A1   29 B1   30 B1   45 A1   25 B2                 
  0.430   0.438   0.447   0.453   0.496   0.499   0.507   0.508
 15 A2   46 A1   47 A1   31 B1   16 A2   48 A1   26 B2   32 B1                 
  0.515   0.517   0.535   0.538   0.604   0.633   0.640   0.700
 33 B1   49 A1   50 A1   34 B1   35 B1   51 A1   52 A1   36 B1                 
  0.715   0.717   0.728   0.735   0.743   0.745   0.748   0.750
 27 B2   53 A1   28 B2   37 B1   54 A1   29 B2   17 A2   55 A1                 
  0.752   0.761   0.768   0.768   0.773   0.778   0.796   0.801
 38 B1   18 A2   39 B1   19 A2   30 B2   56 A1   40 B1   31 B2                 
  0.826   0.831   0.843   0.846   0.852   0.873   0.874   0.891
 20 A2   57 A1   32 B2   21 A2   58 A1   41 B1   33 B2   34 B2                 
  0.902   0.909   0.910   0.931   0.940   0.946   0.947   0.951
 59 A1   60 A1   35 B2   61 A1   36 B2   62 A1   22 A2   42 B1                 
  0.962   0.965   0.971   0.986   1.002   1.027   1.031   1.032
 43 B1   63 A1   44 B1   64 A1   65 A1   66 A1   37 B2   45 B1                 
  1.058   1.063   1.070   1.077   1.080   1.102   1.115   1.115
 46 B1   23 A2   67 A1   68 A1   47 B1   38 B2   69 A1   48 B1                 
  1.126   1.129   1.134   1.139   1.185   1.201   1.213   1.213
 24 A2   39 B2   49 B1   70 A1   71 A1   40 B2   25 A2   50 B1                 
  1.226   1.227   1.242   1.250   1.264   1.321   1.333   1.349
 72 A1   51 B1   73 A1   52 B1   26 A2   41 B2   27 A2   42 B2                 
  1.373   1.387   1.390   1.402   1.409   1.409   1.500   1.522
 53 B1   28 A2   74 A1   29 A2   75 A1   43 B2   44 B2   76 A1                 
  1.584   1.660   1.708   1.770   1.788   1.792   1.792   1.802
 77 A1   78 A1   54 B1   55 B1   45 B2   79 A1   56 B1   57 B1                 
  1.809   1.818   1.834   1.839   1.840   1.849   1.856   1.857
 80 A1   46 B2   81 A1   30 A2   47 B2   82 A1   31 A2   48 B2                 
  1.911   1.919   1.926   1.926   1.928   1.932   1.960   1.967
 32 A2   83 A1   58 B1   49 B2   84 A1   59 B1   60 B1   85 A1                 
  2.012   2.032   2.054   2.063   2.067   2.083   2.108   2.110
 50 B2   86 A1   51 B2   33 A2   61 B1   52 B2   34 A2   87 A1                 
  2.116   2.132   2.136   2.145   2.234   2.235   2.237   2.247
 62 B1   63 B1   88 A1   64 B1   53 B2   35 A2   65 B1   36 A2                 
  2.247   2.251   2.253   2.257   2.274   2.295   2.299   2.316
 54 B2   66 B1   55 B2   67 B1   89 A1   68 B1   56 B2   90 A1                 
  2.342   2.349   2.374   2.376   2.385   2.386   2.388   2.412
 37 A2   91 A1   92 A1   38 A2   93 A1   69 B1   39 A2   57 B2                 
  2.637   2.656   2.658   2.672   2.739   2.744   2.758   2.758
 58 B2   59 B2   40 A2   41 A2   42 A2   94 A1   95 A1   70 B1                 
  2.798   2.823   2.826   2.852   2.856   2.877   2.956   2.959
 96 A1   60 B2   71 B1   72 B1   97 A1   98 A1   73 B1   61 B2                 
  2.963   2.970   2.978   2.990   3.010   3.024   3.031   3.036
 62 B2   99 A1   74 B1  100 A1  101 A1   63 B2   75 B1  102 A1                 
  3.046   3.048   3.052   3.057   3.076   3.078   3.083   3.100
103 A1   64 B2   76 B1   43 A2  104 A1   65 B2  105 A1   77 B1                 
  3.134   3.191   3.198   3.204   3.235   3.256   3.263   3.289
106 A1  107 A1   66 B2   44 A2   67 B2   78 B1   45 A2   79 B1                 
  3.295   3.309   3.312   3.319   3.327   3.332   3.347   3.371
 46 A2  108 A1   47 A2   68 B2   48 A2  109 A1   80 B1  110 A1                 
  3.477   3.500   3.545   3.607   3.777   3.784   3.788   3.809
 69 B2   70 B2   81 B1   82 B1   49 A2  111 A1   83 B1  112 A1                 
  3.920   3.920   3.925   3.948   3.970   4.009   4.078   4.097
 84 B1   71 B2  113 A1   85 B1  114 A1  115 A1   72 B2  116 A1                 
  4.408   4.411   4.419   4.430   4.493   4.508   4.576   4.578
 50 A2  117 A1   86 B1  118 A1   73 B2  119 A1   74 B2   87 B1                 
  4.590   4.614   5.273   5.294  24.763  24.799  25.139  25.147
 88 B1  120 A1   51 A2   89 B1  121 A1  122 A1   75 B2   90 B1                 
 25.149  25.156  25.256  25.256  25.271  25.272  25.362  25.378
 91 B1  123 A1   52 A2  124 A1   92 B1  125 A1   76 B2  126 A1                 

 Beta MOs, Restricted
 -- Occupied --                  
-11.243 -11.243 -11.242 -11.241 -11.241 -11.241 -11.231 -11.230
  1 A1    1 B1    1 B2    1 A2    2 A1    2 B2    3 A1    2 B1                 
-11.229 -11.228 -11.228 -11.224  -1.158  -1.144  -1.022  -1.022
  4 A1    5 A1    3 B1    6 A1    7 A1    8 A1    4 B1    3 B2                 
 -1.009  -1.008  -0.830  -0.830  -0.818  -0.817  -0.716  -0.704
  5 B1    9 A1    2 A2   10 A1    6 B1   11 A1   12 A1   13 A1                 
 -0.649  -0.637  -0.626  -0.612  -0.595  -0.594  -0.584  -0.582
  4 B2   14 A1    7 B1    8 B1    9 B1    5 B2   15 A1   10 B1                 
 -0.511  -0.501  -0.501  -0.494  -0.488  -0.481  -0.345  -0.344
 16 A1    3 A2   17 A1    6 B2   11 B1   18 A1    7 B2   12 B1                 
 -0.330  -0.326
  4 A2    8 B2                                                                 
 -- Virtual --                   
  0.038   0.044   0.049   0.049   0.059   0.063   0.065   0.070
 19 A1   13 B1    9 B2   20 A1   14 B1   21 A1    5 A2   22 A1                 
  0.087   0.096   0.096   0.101   0.102   0.118   0.121   0.124
 15 B1   10 B2   23 A1    6 A2   24 A1   11 B2   25 A1    7 A2                 
  0.129   0.137   0.152   0.156   0.160   0.164   0.167   0.169
 12 B2   26 A1   16 B1   13 B2   17 B1    8 A2   27 A1   18 B1                 
  0.176   0.176   0.178   0.187   0.189   0.192   0.200   0.201
 28 A1   14 B2    9 A2   29 A1   19 B1   30 A1   31 A1   15 B2                 
  0.203   0.205   0.210   0.211   0.218   0.219   0.222   0.223
 20 B1   16 B2   32 A1   10 A2   21 B1   33 A1   11 A2   17 B2                 
  0.234   0.244   0.246   0.247   0.249   0.250   0.251   0.252
 22 B1   34 A1   18 B2   23 B1   19 B2   35 A1   24 B1   12 A2                 
  0.257   0.277   0.284   0.287   0.298   0.302   0.302   0.306
 36 A1   20 B2   37 A1   25 B1   21 B2   38 A1   13 A2   26 B1                 
  0.329   0.333   0.337   0.344   0.350   0.365   0.367   0.379
 39 A1   14 A2   40 A1   27 B1   41 A1   42 A1   22 B2   43 A1                 
  0.383   0.390   0.410   0.410   0.411   0.421   0.425   0.427
 23 B2   28 B1   24 B2   44 A1   29 B1   30 B1   45 A1   25 B2                 
  0.430   0.438   0.447   0.453   0.496   0.499   0.507   0.508
 15 A2   46 A1   47 A1   31 B1   16 A2   48 A1   26 B2   32 B1                 
  0.515   0.517   0.535   0.538   0.604   0.633   0.640   0.700
 33 B1   49 A1   50 A1   34 B1   35 B1   51 A1   52 A1   36 B1                 
  0.715   0.717   0.728   0.735   0.743   0.745   0.748   0.750
 27 B2   53 A1   28 B2   37 B1   54 A1   29 B2   17 A2   55 A1                 
  0.752   0.761   0.768   0.768   0.773   0.778   0.796   0.801
 38 B1   18 A2   39 B1   19 A2   30 B2   56 A1   40 B1   31 B2                 
  0.826   0.831   0.843   0.846   0.852   0.873   0.874   0.891
 20 A2   57 A1   32 B2   21 A2   58 A1   41 B1   33 B2   34 B2                 
  0.902   0.909   0.910   0.931   0.940   0.946   0.947   0.951
 59 A1   60 A1   35 B2   61 A1   36 B2   62 A1   22 A2   42 B1                 
  0.962   0.965   0.971   0.986   1.002   1.027   1.031   1.032
 43 B1   63 A1   44 B1   64 A1   65 A1   66 A1   37 B2   45 B1                 
  1.058   1.063   1.070   1.077   1.080   1.102   1.115   1.115
 46 B1   23 A2   67 A1   68 A1   47 B1   38 B2   69 A1   48 B1                 
  1.126   1.129   1.134   1.139   1.185   1.201   1.213   1.213
 24 A2   39 B2   49 B1   70 A1   71 A1   40 B2   25 A2   50 B1                 
  1.226   1.227   1.242   1.250   1.264   1.321   1.333   1.349
 72 A1   51 B1   73 A1   52 B1   26 A2   41 B2   27 A2   42 B2                 
  1.373   1.387   1.390   1.402   1.409   1.409   1.500   1.522
 53 B1   28 A2   74 A1   29 A2   75 A1   43 B2   44 B2   76 A1                 
  1.584   1.660   1.708   1.770   1.788   1.792   1.792   1.802
 77 A1   78 A1   54 B1   55 B1   45 B2   79 A1   56 B1   57 B1                 
  1.809   1.818   1.834   1.839   1.840   1.849   1.856   1.857
 80 A1   46 B2   81 A1   30 A2   47 B2   82 A1   31 A2   48 B2                 
  1.911   1.919   1.926   1.926   1.928   1.932   1.960   1.967
 32 A2   83 A1   58 B1   49 B2   84 A1   59 B1   60 B1   85 A1                 
  2.012   2.032   2.054   2.063   2.067   2.083   2.108   2.110
 50 B2   86 A1   51 B2   33 A2   61 B1   52 B2   34 A2   87 A1                 
  2.116   2.132   2.136   2.145   2.234   2.235   2.237   2.247
 62 B1   63 B1   88 A1   64 B1   53 B2   35 A2   65 B1   36 A2                 
  2.247   2.251   2.253   2.257   2.274   2.295   2.299   2.316
 54 B2   66 B1   55 B2   67 B1   89 A1   68 B1   56 B2   90 A1                 
  2.342   2.349   2.374   2.376   2.385   2.386   2.388   2.412
 37 A2   91 A1   92 A1   38 A2   93 A1   69 B1   39 A2   57 B2                 
  2.637   2.656   2.658   2.672   2.739   2.744   2.758   2.758
 58 B2   59 B2   40 A2   41 A2   42 A2   94 A1   95 A1   70 B1                 
  2.798   2.823   2.826   2.852   2.856   2.877   2.956   2.959
 96 A1   60 B2   71 B1   72 B1   97 A1   98 A1   73 B1   61 B2                 
  2.963   2.970   2.978   2.990   3.010   3.024   3.031   3.036
 62 B2   99 A1   74 B1  100 A1  101 A1   63 B2   75 B1  102 A1                 
  3.046   3.048   3.052   3.057   3.076   3.078   3.083   3.100
103 A1   64 B2   76 B1   43 A2  104 A1   65 B2  105 A1   77 B1                 
  3.134   3.191   3.198   3.204   3.235   3.256   3.263   3.289
106 A1  107 A1   66 B2   44 A2   67 B2   78 B1   45 A2   79 B1                 
  3.295   3.309   3.312   3.319   3.327   3.332   3.347   3.371
 46 A2  108 A1   47 A2   68 B2   48 A2  109 A1   80 B1  110 A1                 
  3.477   3.500   3.545   3.607   3.777   3.784   3.788   3.809
 69 B2   70 B2   81 B1   82 B1   49 A2  111 A1   83 B1  112 A1                 
  3.920   3.920   3.925   3.948   3.970   4.009   4.078   4.097
 84 B1   71 B2  113 A1   85 B1  114 A1  115 A1   72 B2  116 A1                 
  4.408   4.411   4.419   4.430   4.493   4.508   4.576   4.578
 50 A2  117 A1   86 B1  118 A1   73 B2  119 A1   74 B2   87 B1                 
  4.590   4.614   5.273   5.294  24.763  24.799  25.139  25.147
 88 B1  120 A1   51 A2   89 B1  121 A1  122 A1   75 B2   90 B1                 
 25.149  25.156  25.256  25.256  25.271  25.272  25.362  25.378
 91 B1  123 A1   52 A2  124 A1   92 B1  125 A1   76 B2  126 A1                 
 --------------------------------------------------------------

          Ground-State Mulliken Net Atomic Charges

     Atom                 Charge (a.u.)
  ----------------------------------------
      1 C                     0.208027
      2 C                    -0.253470
      3 C                    -0.098621
      4 C                    -0.404938
      5 C                    -0.098621
      6 C                    -0.253470
      7 H                     0.024829
      8 H                     0.195576
      9 H                     0.204305
     10 H                     0.177854
     11 H                     0.204305
     12 H                     0.195576
     13 C                    -0.237009
     14 C                    -0.207956
     15 C                    -0.207956
     16 C                    -0.237009
     17 C                    -0.207956
     18 C                    -0.207956
     19 H                     0.204367
     20 H                     0.198939
     21 H                     0.198939
     22 H                     0.204367
     23 H                     0.198939
     24 H                     0.198939
  ----------------------------------------
  Sum of atomic charges =    -0.000000

 -----------------------------------------------------------------
                    Cartesian Multipole Moments
 -----------------------------------------------------------------
    Charge (ESU x 10^10)
                -0.0000
    Dipole Moment (Debye)
         X       0.0000      Y       0.0000      Z      -0.5140
       Tot       0.5140
    Quadrupole Moments (Debye-Ang)
        XX     -64.2100     XY       0.0000     YY     -72.9104
        XZ       0.0000     YZ      -0.0000     ZZ     -74.1954
    Octopole Moments (Debye-Ang^2)
       XXX       0.0000    XXY       0.0000    XYY       0.0000
       YYY      -0.0000    XXZ      -1.4820    XYZ      -0.0000
       YYZ     -24.1134    XZZ      -0.0000    YZZ       0.0000
       ZZZ      60.4524
    Hexadecapole Moments (Debye-Ang^3)
      XXXX    -543.8071   XXXY      -0.0000   XXYY    -156.0638
      XYYY       0.0000   YYYY    -320.2701   XXXZ       0.0000
      XXYZ      -0.0000   XYYZ      -0.0000   YYYZ      -0.0000
      XXZZ    -543.7516   XYZZ       0.0000   YYZZ    -572.7702
      XZZZ       0.0000   YZZZ      -0.0000   ZZZZ   -2985.5521
 -----------------------------------------------------------------
 Mayer SCF Bond Order, atomic valence on the diagonal:

            1           2           3           4           5           6
    1   3.1731959   1.5042229   0.0069547  -0.0299589   0.0069547   1.5042229
    2   1.5042229   4.1546054   1.4034812   0.0457799  -0.0316306   0.0073991
    3   0.0069547   1.4034812   3.8651020   1.5640570   0.0033280  -0.0316306
    4  -0.0299589   0.0457799   1.5640570   4.3134500   1.5640570   0.0457799
    5   0.0069547  -0.0316306   0.0033280   1.5640570   3.8651020   1.4034812
    6   1.5042229   0.0073991  -0.0316306   0.0457799   1.4034812   4.1546054
    7   1.0765503   0.0145855   0.0135447   0.0790243   0.0135447   0.0145855
    8   0.0392042   0.8787840  -0.0302885   0.0106912  -0.0164045   0.0184012
    9   0.0142679  -0.0337304   0.8916457   0.0351174   0.0100700  -0.0122393
   10  -0.0113150   0.0065363  -0.0026545   0.9328373  -0.0026545   0.0065363
   11   0.0142679  -0.0122393   0.0100700   0.0351174   0.8916457  -0.0337304
   12   0.0392042   0.0184012  -0.0164045   0.0106912  -0.0302885   0.8787840
   13  -0.0822738   0.0284581  -0.0028599  -0.0106247  -0.0028599   0.0284581
   14  -0.1972681  -0.0472985   0.0031449   0.0104292   0.0256341   0.1933192
   15  -0.1972681  -0.0472985   0.0031449   0.0104292   0.0256341   0.1933192
   16  -0.0822738   0.0284581  -0.0028599  -0.0106247  -0.0028599   0.0284581
   17  -0.1972681   0.1933192   0.0256341   0.0104292   0.0031449  -0.0472985
   18  -0.1972681   0.1933192   0.0256341   0.0104292   0.0031449  -0.0472985
   19  -0.0081641   0.0005254   0.0001261  -0.0000860   0.0001261   0.0005254
   20  -0.0053579  -0.0004023   0.0000045  -0.0000097   0.0004496   0.0019061
   21  -0.0053579  -0.0004023   0.0000045  -0.0000097   0.0004496   0.0019061
   22  -0.0081641   0.0005254   0.0001261  -0.0000860   0.0001261   0.0005254
   23  -0.0053579   0.0019061   0.0004496  -0.0000097   0.0000045  -0.0004023
   24  -0.0053579   0.0019061   0.0004496  -0.0000097   0.0000045  -0.0004023
            7           8           9          10          11          12
    1   1.0765503   0.0392042   0.0142679  -0.0113150   0.0142679   0.0392042
    2   0.0145855   0.8787840  -0.0337304   0.0065363  -0.0122393   0.0184012
    3   0.0135447  -0.0302885   0.8916457  -0.0026545   0.0100700  -0.0164045
    4   0.0790243   0.0106912   0.0351174   0.9328373   0.0351174   0.0106912
    5   0.0135447  -0.0164045   0.0100700  -0.0026545   0.8916457  -0.0302885
    6   0.0145855   0.0184012  -0.0122393   0.0065363  -0.0337304   0.8787840
    7   1.2239279  -0.0003642  -0.0020341   0.0009063  -0.0020341  -0.0003642
    8  -0.0003642   0.9122331   0.0003215   0.0014695   0.0000412   0.0013397
    9  -0.0020341   0.0003215   0.9029712   0.0010617   0.0010781   0.0000412
   10   0.0009063   0.0014695   0.0010617   0.9351564   0.0010617   0.0014695
   11  -0.0020341   0.0000412   0.0010781   0.0010617   0.9029712   0.0003215
   12  -0.0003642   0.0013397   0.0000412   0.0014695   0.0003215   0.9122331
   13   0.0155670  -0.0025700   0.0009742  -0.0004495   0.0009742  -0.0025700
   14  -0.0036225   0.0015785  -0.0008971   0.0001917  -0.0014340   0.0059053
   15  -0.0036225   0.0015785  -0.0008971   0.0001917  -0.0014340   0.0059053
   16   0.0155670  -0.0025700   0.0009742  -0.0004495   0.0009742  -0.0025700
   17  -0.0036225   0.0059053  -0.0014340   0.0001917  -0.0008971   0.0015785
   18  -0.0036225   0.0059053  -0.0014340   0.0001917  -0.0008971   0.0015785
   19  -0.0015658  -0.0002714   0.0000488  -0.0000046   0.0000488  -0.0002714
   20   0.0006178   0.0000439   0.0000059   0.0000108  -0.0000120  -0.0001674
   21   0.0006178   0.0000439   0.0000059   0.0000108  -0.0000120  -0.0001674
   22  -0.0015658  -0.0002714   0.0000488  -0.0000046   0.0000488  -0.0002714
   23   0.0006178  -0.0001674  -0.0000120   0.0000108   0.0000059   0.0000439
   24   0.0006178  -0.0001674  -0.0000120   0.0000108   0.0000059   0.0000439
           13          14          15          16          17          18
    1  -0.0822738  -0.1972681  -0.1972681  -0.0822738  -0.1972681  -0.1972681
    2   0.0284581  -0.0472985  -0.0472985   0.0284581   0.1933192   0.1933192
    3  -0.0028599   0.0031449   0.0031449  -0.0028599   0.0256341   0.0256341
    4  -0.0106247   0.0104292   0.0104292  -0.0106247   0.0104292   0.0104292
    5  -0.0028599   0.0256341   0.0256341  -0.0028599   0.0031449   0.0031449
    6   0.0284581   0.1933192   0.1933192   0.0284581  -0.0472985  -0.0472985
    7   0.0155670  -0.0036225  -0.0036225   0.0155670  -0.0036225  -0.0036225
    8  -0.0025700   0.0015785   0.0015785  -0.0025700   0.0059053   0.0059053
    9   0.0009742  -0.0008971  -0.0008971   0.0009742  -0.0014340  -0.0014340
   10  -0.0004495   0.0001917   0.0001917  -0.0004495   0.0001917   0.0001917
   11   0.0009742  -0.0014340  -0.0014340   0.0009742  -0.0008971  -0.0008971
   12  -0.0025700   0.0059053   0.0059053  -0.0025700   0.0015785   0.0015785
   13   4.2449247   1.6122845   0.1154552  -0.1228004   0.1154552   1.6122845
   14   1.6122845   4.1995097   1.5318341   0.1154552  -0.0558302   0.0976668
   15   0.1154552   1.5318341   4.1995097   1.6122845   0.0976668  -0.0558302
   16  -0.1228004   0.1154552   1.6122845   4.2449247   1.6122845   0.1154552
   17   0.1154552  -0.0558302   0.0976668   1.6122845   4.1995097   1.5318341
   18   1.6122845   0.0976668  -0.0558302   0.1154552   1.5318341   4.1995097
   19   0.9167580  -0.0067358   0.0121908  -0.0089123   0.0121908  -0.0067358
   20   0.0029632   0.9016033   0.0006660   0.0141249  -0.0117630   0.0124555
   21   0.0141249   0.0006660   0.9016033   0.0029632   0.0124555  -0.0117630
   22  -0.0089123   0.0121908  -0.0067358   0.9167580  -0.0067358   0.0121908
   23   0.0141249  -0.0117630   0.0124555   0.0029632   0.9016033   0.0006660
   24   0.0029632   0.0124555  -0.0117630   0.0141249   0.0006660   0.9016033
           19          20          21          22          23          24
    1  -0.0081641  -0.0053579  -0.0053579  -0.0081641  -0.0053579  -0.0053579
    2   0.0005254  -0.0004023  -0.0004023   0.0005254   0.0019061   0.0019061
    3   0.0001261   0.0000045   0.0000045   0.0001261   0.0004496   0.0004496
    4  -0.0000860  -0.0000097  -0.0000097  -0.0000860  -0.0000097  -0.0000097
    5   0.0001261   0.0004496   0.0004496   0.0001261   0.0000045   0.0000045
    6   0.0005254   0.0019061   0.0019061   0.0005254  -0.0004023  -0.0004023
    7  -0.0015658   0.0006178   0.0006178  -0.0015658   0.0006178   0.0006178
    8  -0.0002714   0.0000439   0.0000439  -0.0002714  -0.0001674  -0.0001674
    9   0.0000488   0.0000059   0.0000059   0.0000488  -0.0000120  -0.0000120
   10  -0.0000046   0.0000108   0.0000108  -0.0000046   0.0000108   0.0000108
   11   0.0000488  -0.0000120  -0.0000120   0.0000488   0.0000059   0.0000059
   12  -0.0002714  -0.0001674  -0.0001674  -0.0002714   0.0000439   0.0000439
   13   0.9167580   0.0029632   0.0141249  -0.0089123   0.0141249   0.0029632
   14  -0.0067358   0.9016033   0.0006660   0.0121908  -0.0117630   0.0124555
   15   0.0121908   0.0006660   0.9016033  -0.0067358   0.0124555  -0.0117630
   16  -0.0089123   0.0141249   0.0029632   0.9167580   0.0029632   0.0141249
   17   0.0121908  -0.0117630   0.0124555  -0.0067358   0.9016033   0.0006660
   18  -0.0067358   0.0124555  -0.0117630   0.0121908   0.0006660   0.9016033
   19   0.9138250   0.0007293   0.0012560   0.0000616   0.0012560   0.0007293
   20   0.0007293   0.9213081   0.0008761   0.0012560   0.0000339   0.0012737
   21   0.0012560   0.0008761   0.9213081   0.0007293   0.0012737   0.0000339
   22   0.0000616   0.0012560   0.0007293   0.9138250   0.0007293   0.0012560
   23   0.0012560   0.0000339   0.0012737   0.0007293   0.9213081   0.0008761
   24   0.0007293   0.0012737   0.0000339   0.0012560   0.0008761   0.9213081


 JobOver = TRUE
Archival summary:
1\1\qciep03\SP\HF\BasisUnspecified\1212\jcartus\ThuJan2517:24:542018ThuJan2517:24:542018\0\\#,HF,BasisUnspecified,\\0,1\C\H,1,1.08062\C,1,1.39375,2,120.084\H,3,1.08191,1,119.776,2,-0,0\C,1,1.39375,2,120.084,3,180,0\H,5,1.08191,1,119.776,2,-0,0\C,3,1.39392,1,120.132,2,180,0\H,7,1.08164,3,120.084,1,180,0\C,5,1.39392,1,120.132,2,-180,0\H,9,1.08164,5,120.084,1,-180,0\C,7,1.39394,3,119.953,1,0,0\H,11,1.08157,7,120.001,3,180,0\C,2,2.80372,1,150.184,3,90,0\H,13,1.08134,2,119.613,1,-0,0\C,13,1.39401,2,75.6219,1,116.617,0\H,15,1.08148,13,119.972,2,-116.324,0\C,13,1.39401,2,75.6219,1,-116.617,0\H,17,1.08148,13,119.972,2,116.324,0\C,15,1.39409,13,120.001,2,63.5957,0\H,19,1.08148,15,120.027,13,-179.919,0\C,19,1.39401,15,120.001,13,-0,0\H,21,1.08134,19,120,15,-179.766,0\C,21,1.39401,19,119.999,15,0.0451148,0\H,23,1.08148,21,119.972,19,-179.964,0\\HF=-461.510942\\@

 Total job time:  308.07s(wall), 305.98s(cpu) 
 Thu Jan 25 17:24:54 2018

        *************************************************************
        *                                                           *
        *  Thank you very much for using Q-Chem.  Have a nice day.  *
        *                                                           *
        *************************************************************


*** MISSION COMPLETED -- STARFLEET OUT ***

0 sent ACK to 0 
now end server 0 ... 
