Process 0 of 1 is on qciep03 - thread support 0
initial socket setup ...start
initial socket setup ...done 
now start server 0 ... 
qciep03.tugraz.at 127.0.1
Q-Chem Developer Version! Running on 127.0.1.*
                  Welcome to Q-Chem
     A Quantum Leap Into The Future Of Chemistry


 Q-Chem 5.0, Q-Chem, Inc., Pleasanton, CA (2017)

 Yihan Shao,  Zhengting Gan,  E. Epifanovsky,  A. T. B. Gilbert,  M. Wormit,  
 J. Kussmann,  A. W. Lange,  A. Behn,  Jia Deng,  Xintian Feng,  D. Ghosh,  
 M. Goldey,  P. R. Horn,  L. D. Jacobson,  I. Kaliman,  T. Kus,  A. Landau,  
 Jie Liu,  E. I. Proynov,  R. M. Richard,  R. P. Steele,  E. J. Sundstrom,  
 H. L. Woodcock III,  P. M. Zimmerman,  D. Zuev,  B. Albrecht,  E. Alguire,  
 S. A. Baeppler,  D. Barton,  Z. Benda,  Y. A. Bernard,  E. J. Berquist,  
 K. B. Bravaya,  H. Burton,  D. Casanova,  Chun-Min Chang,  Yunqing Chen,  
 A. Chien,  K. D. Closser,  M. P. Coons,  S. Dasgupta,  A. L. Dempwolff,  
 M. Diedenhofen,  Hainam Do,  R. G. Edgar,  Po-Tung Fang,  S. Fatehi,  
 Qingguo Feng,  J. Fosso-Tande,  Qinghui Ge,  A. Ghysels,  G. Gidofalvi,  
 J. Gomes,  J. Gonthier,  A. Gunina,  M. W. D. Hanson-Heine,  
 P. H. P. Harbach,  A. W. Hauser,  J. E. Herr,  E. G. Hohenstein,  
 Z. C. Holden,  Kerwin Hui,  T.-C. Jagau,  Hyunjun Ji,  B. Kaduk,  
 K. Khistyaev,  Jaehoon Kim,  P. Klunzinger,  K. Koh,  D. Kosenkov,  
 L. Koulias,  T. Kowalczyk,  C. M. Krauter,  A. Kunitsa,  Ka Un Lao,  
 A. Laurent,  K. V. Lawler,  Joonho Lee,  D. Lefrancois,  S. Lehtola,  
 D. S. Levine,  Yi-Pei Li,  You-Sheng Lin,  Fenglai Liu,  E. Livshits,  
 A. Luenser,  P. Manohar,  E. Mansoor,  S. F. Manzer,  Shan-Ping Mao,  
 Yuezhi Mao,  N. Mardirossian,  A. V. Marenich,  T. Markovich,  
 L. A. Martinez-Martinez,  S. A. Maurer,  N. J. Mayhall,  S. C. McKenzie,  
 J.-M. Mewes,  A. F. Morrison,  J. W. Mullinax,  K. Nanda,  
 T. S. Nguyen-Beck,  R. Olivares-Amaya,  J. A. Parkhill,  T. M. Perrine,  
 F. Plasser,  S. Prager,  A. Prociuk,  E. Ramos,  D. R. Rehn,  F. Rob,  
 M. Schneider,  N. Sergueev,  S. M. Sharada,  S. Sharma,  D. W. Small,  
 T. Stauch,  T. Stein,  Yu-Chuan Su,  A. J. W. Thom,  A. Tkatchenko,  
 T. Tsuchimochi,  L. Vogt,  O. Vydrov,  M. A. Watson,  J. Wenzel,  
 M. de Wergifosse,  T. A. Wesolowski,  A. White,  J. Witte,  A. Yamada,  
 Jun Yang,  K. Yao,  S. Yeganeh,  S. R. Yost,  Zhi-Qiang You,  A. Zech,  
 Igor Ying Zhang,  Xing Zhang,  Yan Zhao,  Ying Zhu,  B. R. Brooks,  
 G. K. L. Chan,  C. J. Cramer,  M. S. Gordon,  W. J. Hehre,  A. Klamt,  
 M. W. Schmidt,  C. D. Sherrill,  D. G. Truhlar,  A. Aspuru-Guzik,  R. Baer,  
 A. T. Bell,  N. A. Besley,  Jeng-Da Chai,  R. A. DiStasio Jr.,  A. Dreuw,  
 B. D. Dunietz,  T. R. Furlani,  Chao-Ping Hsu,  Yousung Jung,  Jing Kong,  
 D. S. Lambrecht,  WanZhen Liang,  C. Ochsenfeld,  V. A. Rassolov,  
 L. V. Slipchenko,  J. E. Subotnik,  T. Van Voorhis,  J. M. Herbert,  
 A. I. Krylov,  P. M. W. Gill,  M. Head-Gordon

 Contributors to earlier versions of Q-Chem not listed above: 
 R. D. Adamson,  B. Austin,  J. Baker,  G. J. O. Beran,  K. Brandhorst,  
 S. T. Brown,  E. F. C. Byrd,  A. K. Chakraborty,  C.-L. Cheng,  
 Siu Hung Chien,  D. M. Chipman,  D. L. Crittenden,  H. Dachsel,  
 R. J. Doerksen,  A. D. Dutoi,  L. Fusti-Molnar,  W. A. Goddard III,  
 A. Golubeva-Zadorozhnaya,  S. R. Gwaltney,  G. Hawkins,  A. Heyden,  
 S. Hirata,  G. Kedziora,  F. J. Keil,  C. Kelley,  Jihan Kim,  R. A. King,  
 R. Z. Khaliullin,  P. P. Korambath,  W. Kurlancheek,  A. M. Lee,  M. S. Lee,  
 S. V. Levchenko,  Ching Yeh Lin,  D. Liotard,  R. C. Lochan,  I. Lotan,  
 P. E. Maslen,  N. Nair,  D. P. O'Neill,  D. Neuhauser,  E. Neuscamman,  
 C. M. Oana,  R. Olson,  B. Peters,  R. Peverati,  P. A. Pieniazek,  
 Y. M. Rhee,  J. Ritchie,  M. A. Rohrdanz,  E. Rosta,  N. J. Russ,  
 H. F. Schaefer III,  N. E. Schultz,  N. Shenvi,  A. C. Simmonett,  A. Sodt,  
 D. Stuck,  K. S. Thanthiriwatte,  V. Vanovschi,  Tao Wang,  A. Warshel,  
 C. F. Williams,  Q. Wu,  X. Xu,  W. Zhang

 Please cite Q-Chem as follows:
 Y. Shao et al., Mol. Phys. 113, 184-215 (2015)
 DOI: 10.1080/00268976.2014.952696

 Q-Chem 5.0.2 for Intel X86 EM64T Linux

 Parts of Q-Chem use Armadillo 5.200.1 (Boston Tea Smuggler).
 http://arma.sourceforge.net/

 Q-Chem begins on Thu Jan 25 17:52:33 2018  


Host: 0

     Scratch files written to /home/jcartus/scratch/Methane-dimer.dir//
 Using version located at /usr/local/qchem/bin/qchem

 Parallel job on  1  processors

Total Memory Limit in MB = 2000
Mega-Array Size in MB = 192

Checking the input file for inconsistencies... 	...done.
Finally everything over in PARseQInput

--------------------------------------------------------------
User input:
--------------------------------------------------------------
$rem
SCF_PRINT                     1
BASIS                         6-311++g**
SCF_SAVE_MATRICES             1
SCF_CONVERGENCE               5
SCF_FINAL_PRINT               1
METHOD                        hf
JOBTYPE                       sp
$end

$molecule
0 1
C    0.0    -0.00014    1.859161
H    -0.888551    0.51306    1.494685
H    0.888551    0.51306    1.494685
H    0.0    -1.026339    1.494868
H    0.0    8.9e-05    2.948284
C    0.0    0.00014    -1.859161
H    0.0    -8.9e-05    -2.948284
H    -0.888551    -0.51306    -1.494685
H    0.888551    -0.51306    -1.494685
H    0.0    1.026339    -1.494868
$end


--------------------------------------------------------------
 I,J,IOp=           1           6           2  D=   3.2400019166642104E-020 Fix sym
 I, IOp=           1           4  D=   3.2400019166642104E-020 Fix sym
 I,J,IOp=           2           8           2  D=   3.2100925254999950E-013 Fix sym
 I,J,IOp=           2           9           3  D=   0.0000000000000000      Fix sym
 I,J,IOp=           2           3           4  D=   3.2100925254999950E-013 Fix sym
 I,J,IOp=           4          10           2  D=   3.2107649872159527E-013 Fix sym
 I, IOp=           4           4  D=   3.2107649872159527E-013 Fix sym
 I,J,IOp=           5           7           2  D=   9.7252934871949748E-017 Fix sym
 I, IOp=           5           4  D=   9.7252934871949748E-017 Fix sym
 ----------------------------------------------------------------
             Standard Nuclear Orientation (Angstroms)
    I     Atom           X                Y                Z
 ----------------------------------------------------------------
    1      C      -1.8591610048    -0.0000423748    -0.0000000000
    2      H      -1.4946580570     0.5131384857    -0.8885510000
    3      H      -1.4946580570     0.5131384857     0.8885510000
    4      H      -1.4949218914    -1.0262605026    -0.0000000000
    5      H      -2.9482839913     0.0002438154     0.0000000000
    6      C       1.8591610048     0.0000423748     0.0000000000
    7      H       2.9482839913    -0.0002438154    -0.0000000000
    8      H       1.4946580570    -0.5131384857    -0.8885510000
    9      H       1.4946580570    -0.5131384857     0.8885510000
   10      H       1.4949218914     1.0262605026     0.0000000000
 ----------------------------------------------------------------
 Molecular Point Group                 C2h   NOp =  4
 Largest Abelian Subgroup              C2h   NOp =  4
 Nuclear Repulsion Energy =    41.0002639665 hartrees
 There are       10 alpha and       10 beta electrons
 Requested basis set is 6-311++G(d,p)
 There are 52 shells and 100 basis functions

 Total QAlloc Memory Limit   2000 MB
 Mega-Array Size       188 MB
 MEM_STATIC part       192 MB

finished with qalloc call

                       Distance Matrix (Angstroms)
             C (  1)   H (  2)   H (  3)   H (  4)   H (  5)   C (  6)
   H (  2)  1.088917
   H (  3)  1.088917  1.777102
   H (  4)  1.088942  1.777434  1.777434
   H (  5)  1.089123  1.779217  1.779217  1.779318
   C (  6)  3.718322  3.507263  3.507263  3.507587  4.807445
   H (  7)  4.807445  4.559914  4.559914  4.560130  5.896568  1.089123
   H (  8)  3.507263  3.160578  3.625927  3.160760  4.559914  1.088917
   H (  9)  3.507263  3.625927  3.160578  3.160760  4.559914  1.088917
   H ( 10)  3.507587  3.160760  3.160760  3.626570  4.560130  1.088942
             H (  7)   H (  8)   H (  9)
   H (  8)  1.779217
   H (  9)  1.779217  1.777102
   H ( 10)  1.779318  1.777434  1.777434

 Job number = 2, Threshold = 1.00E-08
Integral type ranges set in mkLRange.C for JobNum: 2  <1-21|1-21>
Symmetry turned off temporarily
 Using the largest function pair in Schwarz integrals
Total number of integrals generated =           44416
Symmetry turned back on
 A cutoff of  1.0D-08 yielded   1256 shell pairs
 There are      4617 function pairs (      4804 Cartesian)
 Job number = 11, Threshold = 1.00E-08
Integral type ranges set in mkLRange.C for JobNum: 11  <1-21|22-22>
Total number of integrals generated =           18960
 Smallest overlap matrix eigenvalue = 6.62E-04
 Multipole matrices computed through 2nd order

 Scale SEOQF with 1.000000e-01/1.000000e-01/1.000000e-01

 Standard Electronic Orientation quadrupole field applied
 Nucleus-field energy     =     0.0000000025 hartrees
 ENuRep (before)= 41.0002639665
 ENucField = 0.0000000025
 ENuRep (after) = 41.0002639690
 Guess from superposition of atomic densities
 Warning:  Energy on first SCF cycle will be non-variational
 SAD guess density has 20.000000 electrons

 ==================================================
    GEN_SCFMAN: A general SCF calculation manager  
                                                   
    Authors:                                       
        -- Eric Jon Sundstrom 2008-2014            
        -- Paul Horn 2010-2015                     
        -- Yuezhi Mao 2012-                        
        -- Dmitri Zuev 2014                        
        -- Alec White 2015-                        
        -- David Stuck 2015                        
        -- Shaama M.S. 2015                        
        -- Shane Yost 2015-                         
        -- Joonho Lee 2016-                        
        -- David Small 2016-                       
        -- Daniel Levine 2016-                     
        -- Susi Lehtola 2017-                      
        -- Hugh Burton 2017-                       
 ==================================================
 Hartree-Fock
Finding J and K together
 Job number = 22, Threshold = 1.00E-08
Integral type ranges set in mkLRange.C for JobNum: 22  <1-21|1-21>
 MakeJK  time:  CPU       0.40 s  wall       0.47 s
 HF Exchange:              -12.96290499070027
 One-Electron:             -184.86089142626386
 Total Coulomb:             76.33028259774092
 Nuclear repulsion:         41.00026396896059
 A restricted SCF calculation will be
 performed using DIIS
 SCF converges when DIIS error is below 1.0e-05
 ---------------------------------------
  Cycle       Energy         DIIS error
 ---------------------------------------
Finding J and K together
 Job number = 22, Threshold = 1.00E-08
Integral type ranges set in mkLRange.C for JobNum: 22  <1-21|1-21>
 MakeJK  time:  CPU       0.93 s  wall       1.00 s
 HF Exchange:              -13.14762041441083
 One-Electron:             -188.13005540373038
 Total Coulomb:             79.88371953204084
 Nuclear repulsion:         41.00026396896059
    1     -80.4932498503      5.20e-02  
Finding J and K together
 Job number = 22, Threshold = 1.00E-08
Integral type ranges set in mkLRange.C for JobNum: 22  <1-21|1-21>
 MakeJK  time:  CPU       0.94 s  wall       1.02 s
 HF Exchange:              -13.13062910399485
 One-Electron:             -187.47571904340541
 Total Coulomb:             79.19067247100691
 Nuclear repulsion:         41.00026396896059
    2     -80.3936923171      3.92e-03  
Finding J and K together
 Job number = 22, Threshold = 1.00E-08
Integral type ranges set in mkLRange.C for JobNum: 22  <1-21|1-21>
 MakeJK  time:  CPU       0.94 s  wall       0.95 s
 HF Exchange:              -13.18218081753997
 One-Electron:             -187.78345303931405
 Total Coulomb:             79.54797266268147
 Nuclear repulsion:         41.00026396896059
    3     -80.4154117074      1.12e-03  
Finding J and K together
 Job number = 22, Threshold = 1.00E-08
Integral type ranges set in mkLRange.C for JobNum: 22  <1-21|1-21>
 MakeJK  time:  CPU       0.93 s  wall       0.97 s
 HF Exchange:              -13.18003932540190
 One-Electron:             -187.70488917161055
 Total Coulomb:             79.46700941483822
 Nuclear repulsion:         41.00026396896059
    4     -80.4173972252      3.72e-04  
Finding J and K together
 Job number = 22, Threshold = 1.00E-08
Integral type ranges set in mkLRange.C for JobNum: 22  <1-21|1-21>
 MakeJK  time:  CPU       0.90 s  wall       0.91 s
 HF Exchange:              -13.18169972944198
 One-Electron:             -187.70789431702681
 Total Coulomb:             79.47166754366260
 Nuclear repulsion:         41.00026396896059
    5     -80.4176551132      4.90e-05  
    6     -80.4176625338      4.69e-06  Convergence criterion met
 ---------------------------------------
 SCF time:   CPU 5.25s  wall 5.00s 
 Total energy in the final basis set =      -80.4176625338
 HF Exchange:              -13.18169972944198
 One-Electron:             -187.70789431702681
 Total Coulomb:             79.47166754366260
 Nuclear repulsion:         41.00026396896059
Wall  1 = 5
Clock 1 = 5.29264497756958
 ==================================================
                  Done GEN_SCFMAN                  
 ==================================================

Symmetry turned off temporarily

 --------------------------------------------------------------
             Orbital Energies (a.u.) and Symmetries
 --------------------------------------------------------------

 Alpha MOs, Restricted
 -- Occupied --                  
-11.207 -11.207  -0.945  -0.940  -0.551  -0.547  -0.547  -0.541
  1 Bu    1 Ag    2 Ag    2 Bu    3 Ag    3 Bu    1 Au    4 Ag                 
 -0.541  -0.538
  1 Bg    4 Bu                                                                 
 -- Virtual --                   
  0.040   0.055   0.074   0.074   0.083   0.099   0.099   0.111
  5 Ag    5 Bu    6 Bu    2 Au    6 Ag    2 Bg    7 Ag    7 Bu                 
  0.141   0.141   0.174   0.174   0.185   0.207   0.216   0.255
  3 Bg    8 Ag    3 Au    8 Bu    9 Ag    9 Bu   10 Ag   10 Bu                 
  0.292   0.292   0.308   0.333   0.333   0.375   0.386   0.424
  4 Au   11 Bu   11 Ag    4 Bg   12 Ag   12 Bu   13 Bu   13 Ag                 
  0.550   0.550   0.550   0.559   0.559   0.686   0.815   0.874
  5 Bg   14 Ag   15 Ag    5 Au   14 Bu   15 Bu   16 Ag   17 Ag                 
  0.875   0.875   0.880   0.880   0.889   0.987   1.054   1.073
  6 Au   16 Bu    6 Bg   18 Ag   17 Bu   18 Bu   19 Bu   19 Ag                 
  1.206   1.206   1.208   1.208   1.724   1.724   1.725   1.725
 20 Bu    7 Au   20 Ag    7 Bg   21 Ag    8 Bg   21 Bu    8 Au                 
  1.725   1.725   1.806   1.809   1.809   1.815   1.815   1.936
  9 Au    9 Bg   22 Ag   22 Bu   10 Au   23 Ag   10 Bg   23 Bu                 
  2.198   2.199   2.213   2.213   2.216   2.263   2.624   2.624
 11 Au   24 Bu   11 Bg   24 Ag   25 Ag   25 Bu   12 Au   26 Bu                 
  2.624   2.625   2.698   2.706   2.775   2.775   2.796   2.835
 12 Bg   26 Ag   27 Ag   27 Bu   28 Ag   13 Bg   29 Ag   28 Bu                 
  2.835   2.937   2.937   2.939   2.942   2.942   2.945   3.006
 13 Au   30 Ag   14 Bg   29 Bu   30 Bu   14 Au   31 Ag   31 Bu                 
  3.256   3.430   4.203   4.204   4.208   4.208   4.209   4.213
 32 Ag   32 Bu   15 Au   33 Bu   34 Bu   15 Bg   33 Ag   34 Ag                 
 25.202  25.214
 35 Bu   35 Ag                                                                 

 Beta MOs, Restricted
 -- Occupied --                  
-11.207 -11.207  -0.945  -0.940  -0.551  -0.547  -0.547  -0.541
  1 Bu    1 Ag    2 Ag    2 Bu    3 Ag    3 Bu    1 Au    4 Ag                 
 -0.541  -0.538
  1 Bg    4 Bu                                                                 
 -- Virtual --                   
  0.040   0.055   0.074   0.074   0.083   0.099   0.099   0.111
  5 Ag    5 Bu    6 Bu    2 Au    6 Ag    2 Bg    7 Ag    7 Bu                 
  0.141   0.141   0.174   0.174   0.185   0.207   0.216   0.255
  3 Bg    8 Ag    3 Au    8 Bu    9 Ag    9 Bu   10 Ag   10 Bu                 
  0.292   0.292   0.308   0.333   0.333   0.375   0.386   0.424
  4 Au   11 Bu   11 Ag    4 Bg   12 Ag   12 Bu   13 Bu   13 Ag                 
  0.550   0.550   0.550   0.559   0.559   0.686   0.815   0.874
  5 Bg   14 Ag   15 Ag    5 Au   14 Bu   15 Bu   16 Ag   17 Ag                 
  0.875   0.875   0.880   0.880   0.889   0.987   1.054   1.073
  6 Au   16 Bu    6 Bg   18 Ag   17 Bu   18 Bu   19 Bu   19 Ag                 
  1.206   1.206   1.208   1.208   1.724   1.724   1.725   1.725
 20 Bu    7 Au   20 Ag    7 Bg   21 Ag    8 Bg   21 Bu    8 Au                 
  1.725   1.725   1.806   1.809   1.809   1.815   1.815   1.936
  9 Au    9 Bg   22 Ag   22 Bu   10 Au   23 Ag   10 Bg   23 Bu                 
  2.198   2.199   2.213   2.213   2.216   2.263   2.624   2.624
 11 Au   24 Bu   11 Bg   24 Ag   25 Ag   25 Bu   12 Au   26 Bu                 
  2.624   2.625   2.698   2.706   2.775   2.775   2.796   2.835
 12 Bg   26 Ag   27 Ag   27 Bu   28 Ag   13 Bg   29 Ag   28 Bu                 
  2.835   2.937   2.937   2.939   2.942   2.942   2.945   3.006
 13 Au   30 Ag   14 Bg   29 Bu   30 Bu   14 Au   31 Ag   31 Bu                 
  3.256   3.430   4.203   4.204   4.208   4.208   4.209   4.213
 32 Ag   32 Bu   15 Au   33 Bu   34 Bu   15 Bg   33 Ag   34 Ag                 
 25.202  25.214
 35 Bu   35 Ag                                                                 
 --------------------------------------------------------------

          Ground-State Mulliken Net Atomic Charges

     Atom                 Charge (a.u.)
  ----------------------------------------
      1 C                    -0.495620
      2 H                     0.125196
      3 H                     0.125196
      4 H                     0.125176
      5 H                     0.120051
      6 C                    -0.495620
      7 H                     0.120051
      8 H                     0.125196
      9 H                     0.125196
     10 H                     0.125176
  ----------------------------------------
  Sum of atomic charges =     0.000000

 -----------------------------------------------------------------
                    Cartesian Multipole Moments
 -----------------------------------------------------------------
    Charge (ESU x 10^10)
                 0.0000
    Dipole Moment (Debye)
         X      -0.0000      Y       0.0000      Z      -0.0000
       Tot       0.0000
    Quadrupole Moments (Debye-Ang)
        XX     -16.9977     XY      -0.0006     YY     -16.8749
        XZ      -0.0000     YZ      -0.0000     ZZ     -16.8775
    Octopole Moments (Debye-Ang^2)
       XXX       0.0000    XXY       0.0000    XYY       0.0000
       YYY       0.0000    XXZ      -0.0000    XYZ       0.0000
       YYZ      -0.0000    XZZ       0.0000    YZZ      -0.0000
       ZZZ      -0.0000
    Hexadecapole Moments (Debye-Ang^3)
      XXXX    -370.0097   XXXY      -0.0083   XXYY     -72.4528
      XYYY       1.3612   YYYY     -31.8195   XXXZ      -0.0000
      XXYZ      -0.0000   XYYZ       0.0000   YYYZ      -0.0000
      XXZZ     -72.4590   XYZZ      -1.3609   YYZZ     -10.6063
      XZZZ      -0.0000   YZZZ      -0.0000   ZZZZ     -31.8194
 -----------------------------------------------------------------
 Mayer SCF Bond Order, atomic valence on the diagonal:

            1           2           3           4           5           6
    1   3.8625502   0.9702194   0.9702194   0.9702484   0.9773486  -0.0201851
    2   0.9702194   0.9215000  -0.0200165  -0.0200016  -0.0119708  -0.0001193
    3   0.9702194  -0.0200165   0.9215000  -0.0200016  -0.0119708  -0.0001193
    4   0.9702484  -0.0200016  -0.0200016   0.9215554  -0.0119621  -0.0001174
    5   0.9773486  -0.0119708  -0.0119708  -0.0119621   0.9374147  -0.0049445
    6  -0.0201851  -0.0001193  -0.0001193  -0.0001174  -0.0049445   3.8625502
    7  -0.0049445   0.0005662   0.0005662   0.0005663  -0.0007846   0.9773486
    8  -0.0001193   0.0012570   0.0003088   0.0012568   0.0005662   0.9702194
    9  -0.0001193   0.0003088   0.0012570   0.0012568   0.0005662   0.9702194
   10  -0.0001174   0.0012568   0.0012568   0.0003098   0.0005663   0.9702484
            7           8           9          10
    1  -0.0049445  -0.0001193  -0.0001193  -0.0001174
    2   0.0005662   0.0012570   0.0003088   0.0012568
    3   0.0005662   0.0003088   0.0012570   0.0012568
    4   0.0005663   0.0012568   0.0012568   0.0003098
    5  -0.0007846   0.0005662   0.0005662   0.0005663
    6   0.9773486   0.9702194   0.9702194   0.9702484
    7   0.9374147  -0.0119708  -0.0119708  -0.0119621
    8  -0.0119708   0.9215000  -0.0200165  -0.0200016
    9  -0.0119708  -0.0200165   0.9215000  -0.0200016
   10  -0.0119621  -0.0200016  -0.0200016   0.9215554


 JobOver = TRUE
Archival summary:
1\1\qciep03\SP\HF\BasisUnspecified\28\jcartus\ThuJan2517:52:402018ThuJan2517:52:402018\0\\#,HF,BasisUnspecified,\\0,1\C\H,1,1.08892\H,1,1.08892,2,109.372\H,1,1.08894,2,109.4,3,119.809,0\H,1,1.08912,2,109.549,3,-120.082,0\H,2,3.16058,1,99.4143,3,-76.4642,0\C,6,1.08892,2,99.4143,1,68.3888,0\H,7,1.08892,6,109.372,2,-76.4642,0\H,7,1.08894,6,109.4,2,43.3449,0\H,7,1.08912,6,109.549,2,163.454,0\\HF=-80.4176625\\@

 Total job time:  6.18s(wall), 5.62s(cpu) 
 Thu Jan 25 17:52:40 2018

        *************************************************************
        *                                                           *
        *  Thank you very much for using Q-Chem.  Have a nice day.  *
        *                                                           *
        *************************************************************


*** MISSION COMPLETED -- STARFLEET OUT ***

0 sent ACK to 0 
now end server 0 ... 
